
#=======================================================================
data_global
#=======================================================================

_audit_creation_method                   'Jana2006 Version : 25/10/2015'


# 1. PROCESSING SUMMARY (IUCr Office Use Only)

_journal_date_recd_electronic            ?
_journal_date_to_coeditor                ?
_journal_date_from_coeditor              ?
_journal_date_accepted                   ?
_journal_date_printers_first             ?
_journal_date_printers_final             ?
_journal_date_proofs_out                 ?
_journal_date_proofs_in                  ?
_journal_coeditor_name                   ?
_journal_coeditor_code                   ?
_journal_coeditor_notes
; ?
;
_journal_techeditor_code                 ?
_journal_paper_category                  ?
_journal_techeditor_notes
; ?
;
_journal_coden_ASTM                      ?
_journal_name_full                       'Acta Crystallographica Section C'
_journal_year                            ?
_journal_volume                          ?
_journal_issue                           ?
_journal_page_first                      ?
_journal_page_last                       ?
_journal_suppl_publ_number               ?
_journal_suppl_publ_pages                ?

#=======================================================================

# 2. SUBMISSION DETAILS

_publ_contact_author_name                ?
_publ_contact_author_address
; ?
;
_publ_contact_author_email               ?
_publ_contact_author_fax                 ?
_publ_contact_author_phone               ?

_publ_requested_journal                  'Acta Crystallographica Section C'
_publ_requested_category                 ?

_publ_contact_letter
; ?
;

#=======================================================================

# 3. TITLE AND AUTHOR LIST

_publ_section_title
; ?
;
_publ_section_title_footnote
; ?
;
loop_
 _publ_author_name
 _publ_author_footnote
 _publ_author_address
; ?      # name
;
; ?      # footnote
;
; ?      # address
;

#=======================================================================

# 4. TEXT

_publ_section_synopsis
; ?
;
_publ_section_abstract
; ?
;
_publ_section_comment
; ?
;
_publ_section_introduction
; ?
;
_publ_section_experimental
; ?
;
_publ_section_exptl_prep
; ?
;
_publ_section_exptl_refinement
; ?
;
_publ_section_exptl_solution
; ?
;
_publ_section_discussion
; ?
;
_publ_section_acknowledgements
; ?
;
_publ_section_references
;
Petricek, V., Dusek, M. & Palatinus L. (2014). Z. Kristallogr. 229(5), 345-352.

Palatinus L. & Chapuis G. (2007). J. Appl. Cryst. 40, 786-790.

# enable this reference if Diamond ver. 2 was used for visualization
#Brandenburg, K. (1999). DIAMOND. Version. 2.1c.
#Crystal Impact GbR, Bonn, Germany.

# enable this reference if Diamond ver. 3 was used for visualization
#Brandenburg, K. & Putz, H. (2005). DIAMOND Version 3.
#Crystal Impact GbR, Postfach 1251, D-53002 Bonn, Germany.

# enable this reference if SIR97 was used for solving of the structure
#Altomare, A., Burla, M. C., Camalli, M., Cascarano, G., Giacovazzo, C.,
#Guagliardi, A., Moliterni, A. G. G., Polidori, G., Spagna, R. (1997).
#SIR97. A Package for Crystal Structure Solution by Direct Methods
#and Refinement, Bari, Rome, Italy.

# use this reference if SIR2002 was used for solving of the structure
#Burla, M.C., Camalli, M., Carrozzini, B., Cascarano, G., Giacovazzo, C.,
#Polidori, G., Spagna, R.
#SIR2002: the program, J. Appl. Cryst, (2003). 36, 1103


# use this reference if SIR2011 was used for solving of the structure
#Burla, M.C., Caliandro, R., Camalli, M., Carrozzini, B., Cascarano,
#G.L., Giacovazzo, C., Mallamo. M., Mazzone, A., Polidori, G., Spagna, R.
#SIR2011: a new package for crystal structure determination and refinement,
#J.Appl.Cryst. (2012) 45, 357-361

# enable this reference if bond valences were calculated
#Brown, I. D. (1996). J. Appl. Cryst. 29, 479-480.

# enable this reference if Xshape wase used for crystal shape refinement
#Stoe & Cie (1998). X-SHAPE. Stoe & Cie, Darmstadt, Germany.


# enable this reference if Flack coefficient was refined
#Flack, H. D. (1983). Acta Cryst. A39, 876-881.
;
_publ_section_figure_captions
; ?
;
_publ_section_table_legends
; ?
;

#=======================================================================
data_I
#=======================================================================

# 5. CHEMICAL DATA

_chemical_name_systematic
; ?
;
_chemical_name_common                    ?
_chemical_formula_moiety                 ?
_chemical_formula_structural             ?
_chemical_formula_analytical             ?
_chemical_formula_iupac                  ?
_chemical_formula_sum                    'Ga3 Ir2 Sr1'
_chemical_formula_weight                 681.2
_chemical_melting_point                  ?
_chemical_compound_source                ?
_chemical_absolute_configuration         .

#=======================================================================

# 6. CRYSTAL DATA

_symmetry_cell_setting                   orthorhombic
_symmetry_space_group_name_H-M           'P n m a'
_symmetry_space_group_name_Hall          '-P -2xabc;-2yb;-2zac'
_symmetry_Int_Tables_number              62

loop_
 _space_group_symop_id
 _space_group_symop_operation_xyz
 1   x,y,z
 2   -x+1/2,-y,z+1/2
 3   -x,y+1/2,-z
 4   x+1/2,-y+1/2,-z+1/2
 5   -x,-y,-z
 6   x+1/2,y,-z+1/2
 7   x,-y+1/2,z
 8   -x+1/2,y+1/2,z+1/2

_cell_length_a                           12.4664(3)
_cell_length_b                           5.6267(3)
_cell_length_c                           6.4362(6)
_cell_angle_alpha                        90
_cell_angle_beta                         90
_cell_angle_gamma                        90
_cell_volume                             451.47(5)

loop_
 _twin_individual_id
 _twin_individual_mass_fraction_refined
 _twin_individual_twin_matrix_11
 _twin_individual_twin_matrix_12
 _twin_individual_twin_matrix_13
 _twin_individual_twin_matrix_21
 _twin_individual_twin_matrix_22
 _twin_individual_twin_matrix_23
 _twin_individual_twin_matrix_31
 _twin_individual_twin_matrix_32
 _twin_individual_twin_matrix_33
 ? ? ? ? ? ? ? ? ? ? ?

_cell_formula_units_Z                    4

_cell_measurement_reflns_used            ?
_cell_measurement_theta_min              ?
_cell_measurement_theta_max              ?
_cell_measurement_temperature            293
_cell_special_details
; ?
;

_exptl_crystal_density_diffrn            10.0224
_exptl_crystal_density_meas              ?
_exptl_crystal_density_method            ?
_exptl_crystal_F_000                     1139

_exptl_absorpt_coefficient_mu            88.476
_exptl_crystal_description               ?
_exptl_crystal_size_max                  ?
_exptl_crystal_size_mid                  ?
_exptl_crystal_size_min                  ?
_exptl_crystal_size_rad                  ?
_exptl_crystal_colour                    ?
_exptl_absorpt_correction_type           ?
_exptl_absorpt_process_details           ?
_exptl_absorpt_correction_T_min          ?
_exptl_absorpt_correction_T_max          ?
loop_
 _exptl_crystal_face_index_h
 _exptl_crystal_face_index_k
 _exptl_crystal_face_index_l
 _exptl_crystal_face_perp_dist
 ? ? ? ?

#=======================================================================

# 7. EXPERIMENTAL DATA

_exptl_special_details                   ?

_diffrn_ambient_temperature              293
_diffrn_source                           ?
_diffrn_source_power                     ?
_diffrn_source_voltage                   ?
_diffrn_source_current                   ?
_diffrn_radiation_type                   X-ray
_diffrn_radiation_source                 ?
_diffrn_radiation_wavelength             0.71359
_diffrn_radiation_monochromator          graphite
_diffrn_measurement_device               'four-circle diffractometer'
_diffrn_measurement_device_type          'IPDS Stoe'
_diffrn_detector                         ?
_diffrn_detector_area_resol_mean         ?
_diffrn_measurement_method               '??integration method??'
_diffrn_measurement_specimen_support     ?

_diffrn_reflns_number                    15220
_diffrn_reflns_theta_min                 3.28
_diffrn_reflns_theta_max                 33.67
_diffrn_reflns_theta_full                33.67
_diffrn_measured_fraction_theta_max      0.99
_diffrn_measured_fraction_theta_full     0.99
_diffrn_reflns_av_R_equivalents          0.0399
_diffrn_reflns_av_unetI/netI             0.0099
_diffrn_reflns_limit_h_min               -19
_diffrn_reflns_limit_h_max               19
_diffrn_reflns_limit_k_min               -8
_diffrn_reflns_limit_k_max               8
_diffrn_reflns_limit_l_min               -9
_diffrn_reflns_limit_l_max               9
_diffrn_reflns_reduction_process         ?

_diffrn_standards_number                 ?
_diffrn_standards_interval_count         ?
_diffrn_standards_interval_time          ?
_diffrn_standards_decay_%                ?
loop_
_diffrn_standard_refln_index_h
_diffrn_standard_refln_index_k
_diffrn_standard_refln_index_l
  ? ? ?

_diffrn_radiation_probe                  X-ray

#=======================================================================

# 8. REFINEMENT DATA

_refine_special_details
; ?
;

_reflns_number_total                     950
_reflns_number_gt                        730
_reflns_threshold_expression             'I>3\s(I)'

_refine_ls_structure_factor_coef         Fsqd
_refine_ls_R_factor_gt                   0.0162
_refine_ls_wR_factor_gt                  0.0338
_refine_ls_R_factor_all                  0.0266
_refine_ls_wR_factor_ref                 0.0357
_refine_ls_goodness_of_fit_ref           1.10
_refine_ls_goodness_of_fit_gt            1.20
_refine_ls_restrained_S_gt               ?
_refine_ls_restrained_S_all              ?
_refine_ls_number_reflns                 950
_refine_ls_number_parameters             36
_refine_ls_number_restraints             0
_refine_ls_number_constraints            0
_refine_ls_weighting_scheme              sigma
_refine_ls_weighting_details             'w=1/(\s^2^(I)+0.0004I^2^)'
_refine_ls_hydrogen_treatment            ?
_refine_ls_shift/su_max                  0.0005
_refine_ls_shift/su_mean                 0.0001
_refine_diff_density_max                 1.70
_refine_diff_density_min                 -1.53
_refine_ls_extinction_method
 'B-C type 1 Gaussian isotropic (Becker & Coppens, 1974)'
_refine_ls_extinction_coef               297(7)
_refine_ls_abs_structure_details         ?
_refine_ls_abs_structure_Flack           ?
_refine_ls_abs_structure_Rogers          ?

loop_
 _atom_type_symbol
 _atom_type_scat_dispersion_real
 _atom_type_scat_dispersion_imag
 _atom_type_scat_source
 Ga   0.2363  1.6277
 'International Tables Vol C tables 4.2.6.8 and 6.1.1.1'
 Ir  -1.4251  8.1309
 'International Tables Vol C tables 4.2.6.8 and 6.1.1.1'
 Sr  -1.5686  3.2779
 'International Tables Vol C tables 4.2.6.8 and 6.1.1.1'

_computing_data_collection               ?
_computing_cell_refinement               ?
_computing_data_reduction                ?
_computing_structure_solution            ?
_computing_structure_refinement          ?
_computing_molecular_graphics            ?
_computing_publication_material          ?

loop_
 _restr_distance_atom_site_label_1
 _restr_distance_site_symmetry_1
 _restr_distance_atom_site_label_2
 _restr_distance_site_symmetry_2
 _restr_distance_target
 _restr_distance_target_weight_param
 ? ? ? ? ? ?

loop_
 _restr_angle_atom_site_label_1
 _restr_angle_site_symmetry_1
 _restr_angle_atom_site_label_2
 _restr_angle_site_symmetry_2
 _restr_angle_atom_site_label_3
 _restr_angle_site_symmetry_3
 _restr_angle_target
 _restr_angle_target_weight_param
 ? ? ? ? ? ? ? ?

loop_
 _restr_torsion_atom_site_label_1
 _restr_torsion_site_symmetry_1
 _restr_torsion_atom_site_label_2
 _restr_torsion_site_symmetry_2
 _restr_torsion_atom_site_label_3
 _restr_torsion_site_symmetry_3
 _restr_torsion_atom_site_label_4
 _restr_torsion_site_symmetry_4
 _restr_torsion_angle_target
 _restr_torsion_weight_param
 ? ? ? ? ? ? ? ? ? ?

loop_
 _restr_equal_distance_atom_site_label_1
 _restr_equal_distance_site_symmetry_1
 _restr_equal_distance_atom_site_label_2
 _restr_equal_distance_site_symmetry_2
 _restr_equal_distance_class_class_id
 _restr_equal_distance_class_target_weight_param
 ? ? ? ? ? ?

loop_
 _restr_equal_angle_atom_site_label_1
 _restr_equal_angle_site_symmetry_1
 _restr_equal_angle_atom_site_label_2
 _restr_equal_angle_site_symmetry_2
 _restr_equal_angle_atom_site_label_3
 _restr_equal_angle_site_symmetry_3
 _restr_equal_angle_class_class_id
 _restr_equal_angle_class_target_weight_param
 ? ? ? ? ? ? ? ?

loop_
 _restr_equal_torsion_atom_site_label_1
 _restr_equal_torsion_site_symmetry_1
 _restr_equal_torsion_atom_site_label_2
 _restr_equal_torsion_site_symmetry_2
 _restr_equal_torsion_atom_site_label_3
 _restr_equal_torsion_site_symmetry_3
 _restr_equal_torsion_atom_site_label_4
 _restr_equal_torsion_site_symmetry_4
 _restr_equal_torsion_class_class_id
 _restr_equal_torsion_class_target_weight_param
 ? ? ? ? ? ? ? ? ? ?


#=======================================================================

# 9. ATOMIC COORDINATES AND DISPLACEMENT PARAMETERS

loop_
 _atom_site_label
 _atom_site_type_symbol
 _atom_site_fract_x
 _atom_site_fract_y
 _atom_site_fract_z
 _atom_site_adp_type
 _atom_site_U_iso_or_equiv
 _atom_site_site_symmetry_multiplicity
 _atom_site_occupancy
 _atom_site_calc_flag
 _atom_site_refinement_flags
 _atom_site_disorder_assembly
 _atom_site_disorder_group
  Ir1 Ir 0.351628(11) 0.00071(3) 0.37233(2) Uani 0.00825(5) 8 0.999(2) d . . .
  Sr1 Sr 0.42213(5) 0.25 0.86758(9) Uani 0.01268(14) 4 1 d . . .
  Ga1 Ga 0.01510(5) 0.25 0.09846(10) Uani 0.01111(17) 4 1 d . . .
  Ga2 Ga 0.20701(6) 0.25 0.57350(10) Uani 0.01103(17) 4 1 d . . .
  Ga3 Ga 0.22046(6) 0.25 0.16696(10) Uani 0.01012(17) 4 1 d . . .

loop_
 _atom_site_aniso_label
 _atom_site_aniso_type_symbol
 _atom_site_aniso_U_11
 _atom_site_aniso_U_22
 _atom_site_aniso_U_33
 _atom_site_aniso_U_12
 _atom_site_aniso_U_13
 _atom_site_aniso_U_23
 Ir1 Ir 0.00839(8) 0.00662(8) 0.00972(8) 0.00010(5) -0.00063(5) 0.00035(6)
 Sr1 Sr 0.0127(2) 0.0117(3) 0.0136(2) 0 0.00042(19) 0
 Ga1 Ga 0.0070(3) 0.0112(3) 0.0151(3) 0 0.0012(2) 0
 Ga2 Ga 0.0132(3) 0.0102(3) 0.0097(3) 0 0.0028(2) 0
 Ga3 Ga 0.0099(3) 0.0104(3) 0.0100(3) 0 -0.0030(2) 0

loop_
 _jana_atom_site_ADP_C_label
 _jana_atom_site_ADP_C_type_symbol
 _jana_atom_site_ADP_C_111
 _jana_atom_site_ADP_C_112
 _jana_atom_site_ADP_C_113
 _jana_atom_site_ADP_C_122
 _jana_atom_site_ADP_C_123
 _jana_atom_site_ADP_C_133
 _jana_atom_site_ADP_C_222
 _jana_atom_site_ADP_C_223
 _jana_atom_site_ADP_C_233
 _jana_atom_site_ADP_C_333
 ? ? ? ? ? ? ? ? ? ? ? ?

loop_
 _jana_atom_site_ADP_D_label
 _jana_atom_site_ADP_D_type_symbol
 _jana_atom_site_ADP_D_1111
 _jana_atom_site_ADP_D_1112
 _jana_atom_site_ADP_D_1113
 _jana_atom_site_ADP_D_1122
 _jana_atom_site_ADP_D_1123
 _jana_atom_site_ADP_D_1133
 _jana_atom_site_ADP_D_1222
 _jana_atom_site_ADP_D_1223
 _jana_atom_site_ADP_D_1233
 _jana_atom_site_ADP_D_1333
 _jana_atom_site_ADP_D_2222
 _jana_atom_site_ADP_D_2223
 _jana_atom_site_ADP_D_2233
 _jana_atom_site_ADP_D_2333
 _jana_atom_site_ADP_D_3333
 ? ? ? ? ? ? ? ? ? ? ? ? ? ? ? ? ?

loop_
 _jana_atom_site_ADP_E_label
 _jana_atom_site_ADP_E_type_symbol
 _jana_atom_site_ADP_E_11111
 _jana_atom_site_ADP_E_11112
 _jana_atom_site_ADP_E_11113
 _jana_atom_site_ADP_E_11122
 _jana_atom_site_ADP_E_11123
 _jana_atom_site_ADP_E_11133
 _jana_atom_site_ADP_E_11222
 _jana_atom_site_ADP_E_11223
 _jana_atom_site_ADP_E_11233
 _jana_atom_site_ADP_E_11333
 _jana_atom_site_ADP_E_12222
 _jana_atom_site_ADP_E_12223
 _jana_atom_site_ADP_E_12233
 _jana_atom_site_ADP_E_12333
 _jana_atom_site_ADP_E_13333
 _jana_atom_site_ADP_E_22222
 _jana_atom_site_ADP_E_22223
 _jana_atom_site_ADP_E_22233
 _jana_atom_site_ADP_E_22333
 _jana_atom_site_ADP_E_23333
 _jana_atom_site_ADP_E_33333
 ? ? ? ? ? ? ? ? ? ? ? ? ? ? ? ? ? ? ? ? ? ? ?

loop_
 _jana_atom_site_ADP_F_label
 _jana_atom_site_ADP_F_type_symbol
 _jana_atom_site_ADP_F_111111
 _jana_atom_site_ADP_F_111112
 _jana_atom_site_ADP_F_111113
 _jana_atom_site_ADP_F_111122
 _jana_atom_site_ADP_F_111123
 _jana_atom_site_ADP_F_111133
 _jana_atom_site_ADP_F_111222
 _jana_atom_site_ADP_F_111223
 _jana_atom_site_ADP_F_111233
 _jana_atom_site_ADP_F_111333
 _jana_atom_site_ADP_F_112222
 _jana_atom_site_ADP_F_112223
 _jana_atom_site_ADP_F_112233
 _jana_atom_site_ADP_F_112333
 _jana_atom_site_ADP_F_113333
 _jana_atom_site_ADP_F_122222
 _jana_atom_site_ADP_F_122223
 _jana_atom_site_ADP_F_122233
 _jana_atom_site_ADP_F_122333
 _jana_atom_site_ADP_F_123333
 _jana_atom_site_ADP_F_133333
 _jana_atom_site_ADP_F_222222
 _jana_atom_site_ADP_F_222223
 _jana_atom_site_ADP_F_222233
 _jana_atom_site_ADP_F_222333
 _jana_atom_site_ADP_F_223333
 _jana_atom_site_ADP_F_233333
 _jana_atom_site_ADP_F_333333
 ? ? ? ? ? ? ? ? ? ? ? ? ? ? ? ? ? ? ? ? ? ? ? ? ? ? ? ? ? ?


#=======================================================================

# 10. MOLECULAR GEOMETRY


loop_
 _geom_bond_atom_site_label_1
 _geom_bond_atom_site_label_2
 _geom_bond_site_symmetry_1
 _geom_bond_site_symmetry_2
 _geom_bond_distance
 _geom_bond_publ_flag
 ? ? ? ? ? ?

loop_
 _geom_angle_atom_site_label_1
 _geom_angle_atom_site_label_2
 _geom_angle_atom_site_label_3
 _geom_angle_site_symmetry_1
 _geom_angle_site_symmetry_2
 _geom_angle_site_symmetry_3
 _geom_angle
 _geom_angle_publ_flag
 ? ? ? ? ? ? ? ?

loop_
 _geom_torsion_atom_site_label_1
 _geom_torsion_atom_site_label_2
 _geom_torsion_atom_site_label_3
 _geom_torsion_atom_site_label_4
 _geom_torsion_site_symmetry_1
 _geom_torsion_site_symmetry_2
 _geom_torsion_site_symmetry_3
 _geom_torsion_site_symmetry_4
 _geom_torsion
 _geom_torsion_publ_flag
 ? ? ? ? ? ? ? ? ? ?

loop_
 _geom_hbond_atom_site_label_D
 _geom_hbond_atom_site_label_H
 _geom_hbond_atom_site_label_A
 _geom_hbond_site_symmetry_D
 _geom_hbond_site_symmetry_H
 _geom_hbond_site_symmetry_A
 _geom_hbond_distance_DH
 _geom_hbond_distance_HA
 _geom_hbond_distance_DA
 _geom_hbond_angle_DHA
 _geom_hbond_publ_flag
 ? ? ? ? ? ? ? ? ? ? ?


#=======================================================================

# 11. STRUCTURE-FACTOR LIST

loop_
 _refln_index_h
 _refln_index_k
 _refln_index_l
 _refln_F_squared_calc
 _refln_F_squared_meas
 _refln_F_squared_sigma
 _refln_observed_status
   2   0   0  35392.90  35500.00    863.08 o
   4   0   0  68661.80  72017.20    544.56 o
   6   0   0  93413.70 100020.00    537.78 o
   8   0   0  14571.00  15467.60    265.25 o
  10   0   0  54433.80  58838.20    275.12 o
  12   0   0   3116.21   3550.56    185.38 o
  14   0   0 133878.00 137436.00    316.84 o
  16   0   0  44036.00  43581.40    225.86 o
  18   0   0  10620.80  10806.00    189.30 o
   2   1   0    152.79    655.30    391.93 <
   4   1   0  49534.10  50735.40    376.89 o
   6   1   0  38257.50  40016.80    280.80 o
   8   1   0    736.89    975.48    166.24 o
  10   1   0  44283.70  47719.80    206.45 o
  12   1   0   1515.50   1647.27    125.51 o
  14   1   0    299.07    398.05    131.64 o
  16   1   0    456.17    376.14    137.92 <
  18   1   0    282.46    347.89    128.50 <
   0   2   0  10460.60  11475.30    453.73 o
   2   2   0  16730.00  17166.30    361.43 o
   4   2   0 302585.00 317451.00    924.53 o
   6   2   0 146997.00 153096.00    385.33 o
   8   2   0  34022.50  35979.50    208.56 o
  10   2   0 207965.00 221897.00    334.32 o
  12   2   0   3673.51   3787.29    122.58 o
  14   2   0  13144.00  13576.50    142.34 o
  16   2   0  13587.50  13779.20    132.80 o
  18   2   0   7431.00   7836.66    147.98 o
   2   3   0    325.09    520.44    206.92 <
   4   3   0  31662.50  31105.30    353.54 o
   6   3   0  23675.60  23406.80    270.71 o
   8   3   0    287.97    479.58    159.86 o
  10   3   0  32318.60  33646.40    235.18 o
  12   3   0    819.79   1028.46    137.96 o
  14   3   0    252.15    329.08    141.04 <
  16   3   0    474.89    517.20    134.79 o
  18   3   0    311.05    162.98    159.85 <
   0   4   0 481418.00 471371.00   1223.15 o
   2   4   0  16140.40  16209.60    207.57 o
   4   4   0  39680.40  39983.40    258.32 o
   6   4   0  53703.90  54532.00    326.62 o
   8   4   0   9108.72   8995.62    214.78 o
  10   4   0  39126.80  39479.80    264.79 o
  12   4   0   2265.13   2529.74    178.90 o
  14   4   0  89117.60  92397.60    311.80 o
  16   4   0  30915.60  31911.30    194.93 o
   2   5   0     19.36    159.82    166.08 <
   4   5   0  14250.40  14444.60    190.39 o
   6   5   0  13394.20  13186.60    193.27 o
   8   5   0    389.27    573.62    181.80 o
  10   5   0  17619.40  18275.10    250.65 o
  12   5   0    907.48   1131.91    206.94 o
  14   5   0     96.25    278.91    250.70 <
   0   6   0  10895.40  11437.50    360.29 o
   2   6   0   6030.52   6334.33    176.30 o
   4   6   0  97920.20  94863.00    279.14 o
   6   6   0  57140.10  55950.00    238.15 o
   8   6   0  14285.20  14347.80    240.50 o
  10   6   0  88344.80  87503.70    314.93 o
  12   6   0   1714.28   2255.54    232.14 o
   2   7   0    114.10    194.30    209.97 <
   4   7   0   7346.99   7513.92    179.50 o
   6   7   0   4563.61   4623.46    198.01 o
   8   7   0     15.92    -65.81    213.09 <
  10   7   0   8892.88   8921.79    239.51 o
   0   8   0 118803.00 120624.00    610.05 o
   2   8   0   4667.22   5302.30    304.88 o
   4   8   0  17054.20  17604.10    294.62 o
   6   8   0  18947.30  18220.50    313.98 o
   1   0   1  56280.10  56225.80    572.32 o
   2   0   1  81922.40  89466.80    489.35 o
   3   0   1  56235.90  60252.10    333.56 o
   4   0   1  81369.00  85937.90    345.27 o
   5   0   1   3976.95   4120.37    186.43 o
   6   0   1  81230.90  81688.80    283.31 o
   7   0   1 189210.00 192402.00    367.53 o
   8   0   1 102594.00 101112.00    266.91 o
   9   0   1   7435.92   7516.21    164.36 o
  10   0   1     63.73    109.68    125.35 <
  11   0   1  31070.40  31802.30    170.93 o
  12   0   1  37786.50  38346.20    168.23 o
  13   0   1  36604.40  37216.80    164.45 o
  14   0   1    225.98    360.42    119.10 o
  15   0   1    294.95    310.29    112.83 <
  16   0   1   7184.31   7320.89    122.80 o
  17   0   1  12686.90  12761.60    129.54 o
  18   0   1  27012.30  26953.80    149.83 o
  19   0   1   3010.06   3243.23    172.68 o
   0   1   1    399.69    364.07    282.46 <
   1   1   1     32.89     31.34    181.77 <
   2   1   1   1241.36   1249.02    182.48 o
   3   1   1  14469.20  14633.90    182.40 o
   4   1   1  15313.90  15648.60    197.84 o
   5   1   1   8275.64   8363.71    165.55 o
   6   1   1   6217.18   6135.56    136.13 o
   7   1   1     99.56     68.95    122.23 <
   8   1   1   9629.94   9404.66    126.88 o
   9   1   1   1333.14   1274.15    106.70 o
  10   1   1     10.96    -78.34    100.28 <
  11   1   1    728.35    758.84     94.07 o
  12   1   1   1073.49   1198.11     94.09 o
  13   1   1   3785.15   3919.17     97.43 o
  14   1   1     39.94     21.94     94.01 <
  15   1   1   3336.13   3382.73    100.51 o
  16   1   1    593.40    573.67     81.51 o
  17   1   1   1398.17   1474.13     84.68 o
  18   1   1   1747.81   1854.03     90.98 o
  19   1   1   2243.96   2278.25     97.28 o
   1   2   1  44038.20  43856.40    234.73 o
   2   2   1 181422.00 186166.00    363.55 o
   3   2   1 173248.00 176823.00    337.56 o
   4   2   1  13250.70  13314.00    160.37 o
   5   2   1   7327.94   7376.76    133.14 o
   6   2   1  16595.00  16771.70    150.75 o
   7   2   1  20576.10  20499.60    154.35 o
   8   2   1  42570.60  42489.10    177.46 o
   9   2   1  30164.80  29972.90    132.49 o
  10   2   1   1962.19   1968.40    113.02 o
  11   2   1  16607.10  17159.30    120.79 o
  12   2   1  54278.40  54852.10    134.08 o
  13   2   1  27486.20  28194.80    115.15 o
  14   2   1  24443.30  24542.80    108.40 o
  15   2   1   4223.87   4280.27    109.99 o
  16   2   1  21829.00  22063.70     98.54 o
  17   2   1  31111.40  31296.90    111.88 o
  18   2   1   7124.91   7284.22     97.58 o
   0   3   1    131.30     47.01    209.99 <
   1   3   1     71.35     87.75    150.43 <
   2   3   1    639.45    702.61    147.42 o
   3   3   1   9041.01   9229.03    139.69 o
   4   3   1  10359.30  10362.90    149.36 o
   5   3   1   4539.00   4636.00    135.52 o
   6   3   1   3687.86   3754.51    132.18 o
   7   3   1     58.55      0.00    119.08 <
   8   3   1   6373.64   6436.33    122.99 o
   9   3   1   1144.42   1245.35    116.07 o
  10   3   1     36.37     50.14    122.21 <
  11   3   1    694.41    689.77    122.28 o
  12   3   1    834.03    874.82    103.47 o
  13   3   1   2623.54   2809.84     97.32 o
  14   3   1     73.83    175.49     90.88 <
  15   3   1   2885.68   2922.97     97.33 o
  16   3   1    409.55    473.30    100.30 o
  17   3   1   1112.50   1241.79    100.35 o
   1   4   1  25979.70  25899.40    171.16 o
   2   4   1  42036.60  42790.30    220.13 o
   3   4   1  30694.30  30971.60    168.54 o
   4   4   1  39483.10  39834.80    176.38 o
   5   4   1   1591.53   1666.64    141.24 o
   6   4   1  43450.70  43656.20    189.38 o
   7   4   1 104274.00 102838.00    250.47 o
   8   4   1  61042.10  59962.50    188.00 o
   9   4   1   5258.22   5343.67    132.18 o
  10   4   1     86.68    150.42    131.62 <
  11   4   1  20450.40  21018.50    155.86 o
  12   4   1  26172.80  26801.10    146.80 o
  13   4   1  24898.90  25881.60    149.77 o
  14   4   1    317.36    363.57    122.24 <
  15   4   1    139.55    137.89    125.36 <
  16   4   1   5557.14   5795.81    135.23 o
  17   4   1   9728.21  10692.10    242.79 o
   0   5   1    201.07    282.08    181.78 <
   1   5   1      2.72     47.00    131.61 <
   2   5   1    402.66    510.96    131.66 o
   3   5   1   4027.29   4085.27    125.80 o
   4   5   1   4193.27   4293.05    125.80 o
   5   5   1   3149.62   3421.59    125.68 o
   6   5   1   2432.58   2480.46    122.45 o
   7   5   1     53.97    125.35    137.88 <
   8   5   1   3849.44   3824.71    131.99 o
   9   5   1    298.45    495.21    122.24 o
  10   5   1      3.14   -147.28    128.48 <
  11   5   1    277.51     72.09    134.77 <
  12   5   1    510.98    598.72    131.65 o
  13   5   1   1825.62   1741.22    138.04 o
  14   5   1      7.03    162.95    181.75 <
  15   5   1   1400.60   1307.88    188.18 o
   1   6   1  15510.30  15567.70    158.56 o
   2   6   1  59096.20  58110.10    206.35 o
   3   6   1  56290.00  54076.90    196.02 o
   4   6   1   5915.42   5914.07    122.75 o
   5   6   1   2066.25   2196.84    128.67 o
   6   6   1   8058.75   8200.79    126.07 o
   7   6   1  11495.40  11289.80    151.63 o
   8   6   1  19730.00  19554.70    187.38 o
   9   6   1  12397.80  12054.30    164.30 o
  10   6   1    679.60    611.32    137.94 o
  11   6   1   8289.75   8786.76    160.68 o
  12   6   1  26389.10  27233.70    213.51 o
  13   6   1  14450.80  15420.70    196.08 o
   0   7   1     11.29     62.67    244.42 <
   1   7   1     57.16    106.55    175.49 <
   2   7   1    138.76     87.75    144.16 <
   3   7   1   2100.13   2369.23    138.07 o
   4   7   1   2432.23   2520.40    134.96 o
   5   7   1    794.66    833.98    125.41 o
   6   7   1    780.35    761.85    134.81 o
   7   7   1     15.76     94.01    137.88 <
   8   7   1   1497.23   1395.80    153.70 o
   9   7   1    344.02     21.94    159.85 <
  10   7   1     28.27     62.67    184.88 <
  11   7   1    287.58    297.74    194.32 <
   1   8   1   7722.06   8502.88    233.04 o
   2   8   1  14937.40  16185.70    253.10 o
   3   8   1  12084.40  12587.60    208.43 o
   4   8   1  11556.90  11708.70    186.25 o
   5   8   1    256.70    410.57    156.71 <
   6   8   1  13124.30  11855.90    202.23 o
   7   8   1  31631.70  28898.60    262.13 o
   0   0   2    254.21    746.35    279.10 <
   1   0   2  90409.50  87434.10    328.24 o
   2   0   2    691.60    759.70    185.22 o
   3   0   2 143880.00 148294.00    343.77 o
   4   0   2   1453.20   1580.82    163.43 o
   5   0   2 247111.00 267172.00    420.08 o
   6   0   2   1805.89   1847.68    135.12 o
   7   0   2    924.43   1113.82    138.05 o
   8   0   2    102.53    354.14    134.76 <
   9   0   2  57591.70  56985.70    213.09 o
  10   0   2   2010.35   2285.76    125.59 o
  11   0   2 156968.00 151619.00    260.75 o
  12   0   2     72.92    100.28    125.35 <
  13   0   2   9873.62   9639.62    129.46 o
  14   0   2     82.56      3.13    119.08 <
  15   0   2  36933.80  36625.30    170.30 o
  16   0   2    271.51    100.29    131.63 <
  17   0   2      0.08     53.27    125.34 <
  18   0   2    102.45    166.09    131.62 <
   1   1   2  53680.60  53282.40    195.52 o
   2   1   2    703.30    860.00    119.27 o
   3   1   2      9.44    225.62    112.81 <
   4   1   2      7.02    -28.20    103.41 <
   5   1   2  15575.30  15660.60    118.93 o
   6   1   2    700.77    727.74    109.79 o
   7   1   2  19795.90  20271.90    147.88 o
   8   1   2    142.51    225.66    109.69 <
   9   1   2  11729.20  11373.20    101.52 o
  10   1   2     24.42     34.47    106.54 <
  11   1   2    166.41    260.12    106.56 <
  12   1   2   1343.37   1336.37    106.66 o
  13   1   2   6767.11   6595.54     91.34 o
  14   1   2     62.00     78.34     81.48 <
  15   1   2   1265.15   1342.34     84.68 o
  16   1   2   1193.35   1194.84     84.67 o
  17   1   2   1530.66   1533.84     87.83 o
  18   1   2      2.10     34.47     90.87 <
   0   2   2   2042.87   2403.37    163.58 o
   1   2   2 236894.00 231251.00    345.57 o
   2   2   2    230.27    388.73    109.72 o
   3   2   2   1003.39   1167.66    106.72 o
   4   2   2     71.91    147.29    103.42 <
   5   2   2 150415.00 153812.00    235.87 o
   6   2   2   3247.15   3332.36    100.69 o
   7   2   2  24014.90  24222.30    138.54 o
   8   2   2     11.51     50.14     97.14 <
   9   2   2 133173.00 132073.00    198.30 o
  10   2   2    410.89    495.29     97.18 o
  11   2   2   6246.33   6183.37     97.65 o
  12   2   2     71.83    115.95     90.88 <
  13   2   2  18613.50  18344.30    108.00 o
  14   2   2     66.96     37.60     84.61 <
  15   2   2  76272.30  77806.80    131.73 o
  16   2   2     70.38      3.13     90.88 <
  17   2   2   3162.98   3325.24    100.48 o
  18   2   2    364.64    401.19    112.83 o
   1   3   2  31104.80  30967.30    147.20 o
   2   3   2    479.86    580.09    109.75 o
   3   3   2     15.51    184.88    112.81 <
   4   3   2      2.09     31.34    106.54 <
   5   3   2  10486.00  10708.70    114.19 o
   6   3   2    450.02    426.38    103.46 o
   7   3   2  15309.10  15157.60    120.93 o
   8   3   2    112.43     50.14    100.29 <
   9   3   2   8661.87   8522.25    113.67 o
  10   3   2     18.63    106.54    103.41 <
  11   3   2    240.74    304.01    103.43 <
  12   3   2    952.44    950.14    100.35 o
  13   3   2   4669.05   4753.56    106.89 o
  14   3   2     43.54     43.87    100.28 <
  15   3   2    907.18   1069.19    112.88 o
  16   3   2    958.18    909.30    100.34 o
  17   3   2    989.33   1047.28    106.61 o
   0   4   2     79.96    307.12    172.36 <
   1   4   2  49296.50  49998.00    175.05 o
   2   4   2    290.85    347.94    119.11 <
   3   4   2  67730.00  67176.90    191.27 o
   4   4   2    691.41    740.04    119.16 o
   5   4   2 137129.00 134849.00    248.31 o
   6   4   2    801.60    878.05    119.16 o
   7   4   2    841.23    884.32    134.84 o
   8   4   2     60.06     84.61    119.08 <
   9   4   2  38745.80  37563.00    161.46 o
  10   4   2   1124.19   1320.36    116.04 o
  11   4   2  98069.50  97639.20    191.12 o
  12   4   2     43.65    -59.54    115.95 <
  13   4   2   7115.74   7389.71    135.39 o
  14   4   2     59.14    -18.80    115.95 <
  15   4   2  27858.30  28376.40    140.35 o
  16   4   2    175.79    272.65    119.09 <
   1   5   2  16927.40  16879.90    181.30 o
   2   5   2    193.27    175.51    134.77 <
   3   5   2     60.61     34.47    141.02 <
   4   5   2      3.73    -53.27    125.34 <
   5   5   2   4867.63   5036.85    132.13 o
   6   5   2    259.52    247.60    119.10 <
   7   5   2   6742.09   6771.98    132.29 o
   8   5   2     39.07    131.61    119.08 <
   9   5   2   4164.07   4450.38    116.29 o
  10   5   2     11.92    119.08    169.21 <
  11   5   2     35.33     15.67    153.55 <
  12   5   2    607.53    583.08    147.34 o
  13   5   2   3551.98   3530.28    147.62 o
  14   5   2     34.02    -31.34    144.15 <
  15   5   2    687.20    695.96    178.69 o
   0   6   2    556.17    683.41    213.17 o
   1   6   2  78820.40  75858.10    212.39 o
   2   6   2     42.46     90.88    144.15 <
   3   6   2     13.64    228.75    131.61 <
   4   6   2      7.24   -119.08    131.61 <
   5   6   2  63880.30  63922.20    199.86 o
   6   6   2    963.90   1012.83    131.70 o
   7   6   2   8953.58   8613.89    157.65 o
   8   6   2      6.92    188.02    128.48 <
   9   6   2  58375.90  59006.30    182.25 o
  10   6   2    103.45     40.74    128.49 <
  11   6   2   5168.41   5495.84    144.63 o
  12   6   2     28.40     43.87    134.75 <
  13   6   2   9302.22   9481.91    151.31 o
   1   7   2   6085.69   6387.39    163.62 o
   2   7   2    117.51    -34.47    156.69 <
   3   7   2     36.75    103.41    137.88 <
   4   7   2      0.13    -40.74    141.01 <
   5   7   2   2125.64   2347.22    144.35 o
   6   7   2     96.12     97.15    141.02 <
   7   7   2   4596.58   4802.43    157.15 o
   8   7   2     30.28     78.34    150.41 <
   9   7   2   2347.99   2582.83    166.33 o
  10   7   2      6.00    -81.47    169.21 <
   0   8   2      3.40    567.18    316.49 <
   1   8   2  19093.60  20262.80    218.87 o
   2   8   2     53.08    -43.87    197.42 <
   3   8   2  17452.30  18083.40    209.13 o
   4   8   2    166.75     75.21    172.37 <
   5   8   2  44520.50  44510.60    225.57 o
   6   8   2    134.96     72.08    169.23 <
   1   0   3  33619.30  31419.50    180.05 o
   2   0   3  77315.90  71300.40    311.15 o
   3   0   3 128799.00 123852.00    294.50 o
   4   0   3 101264.00  97678.00    257.91 o
   5   0   3  18154.00  18266.80    157.53 o
   6   0   3  21073.80  21189.80    180.28 o
   7   0   3  73528.50  73895.60    207.74 o
   8   0   3  25323.00  25197.70    157.73 o
   9   0   3   1277.74   1377.37    131.78 o
  10   0   3   1243.51   1383.47    144.31 o
  11   0   3  49030.80  47881.40    179.42 o
  12   0   3  44589.50  42437.00    178.35 o
  13   0   3  27500.70  26308.50    153.46 o
  14   0   3     44.37    203.69    131.62 <
  15   0   3     43.70     84.61    131.61 <
  16   0   3   5550.81   5692.46    135.24 o
  17   0   3  20272.70  20389.60    180.95 o
  18   0   3  30441.00  30062.60    191.66 o
   0   1   3   3918.24   3704.69    148.31 o
   1   1   3  20071.50  19353.50    126.56 o
   2   1   3  14755.40  14522.90    115.64 o
   3   1   3     19.01    175.49     90.88 <
   4   1   3   2842.19   2822.69     94.40 o
   5   1   3  10704.90  10819.50    104.92 o
   6   1   3  10604.00  10703.40    114.31 o
   7   1   3    304.33    257.04     97.17 <
   8   1   3  12767.90  12714.60    107.97 o
   9   1   3   2832.10   2818.48    100.55 o
  10   1   3    646.53    645.89    103.47 o
  11   1   3    115.59     94.02    100.28 <
  12   1   3   1306.35   1267.25     97.24 o
  13   1   3    489.96    545.44     97.18 o
  14   1   3   1749.19   1612.63     84.71 o
  15   1   3   5358.79   5220.48     94.35 o
  16   1   3    152.75    194.30     90.88 <
  17   1   3     21.26    166.08     94.01 <
  18   1   3    188.42    191.17     97.15 <
   1   2   3  45268.00  44954.70    143.85 o
   2   2   3  84097.90  83852.50    179.32 o
   3   2   3  63365.30  62853.90    143.15 o
   4   2   3    204.89    141.05     97.17 <
   5   2   3  23546.80  23582.20    125.71 o
   6   2   3  33190.90  32979.90    126.80 o
   7   2   3  69265.30  68457.50    161.32 o
   8   2   3  74362.60  73709.50    154.54 o
   9   2   3  42839.00  41864.50    110.66 o
  10   2   3     20.71     12.53     84.61 <
  11   2   3   6906.64   6670.02     91.37 o
  12   2   3  24451.50  23668.60    111.67 o
  13   2   3  32662.30  31327.00    109.01 o
  14   2   3  21744.80  21058.10    108.12 o
  15   2   3   2294.03   2259.61     91.01 o
  16   2   3  15114.40  14951.20    101.26 o
  17   2   3  21683.50  21324.50    117.55 o
   0   3   3   3216.10   3347.22    132.13 o
   1   3   3  13847.40  14009.60    121.07 o
   2   3   3  10042.00   9890.15    104.64 o
   3   3   3     16.82    147.28     94.01 <
   4   3   3   2336.88   2441.05     94.25 o
   5   3   3   6750.64   6866.79     94.67 o
   6   3   3   6729.95   6665.30     97.79 o
   7   3   3    210.05    188.05     94.03 <
   8   3   3   8725.27   8617.03     97.88 o
   9   3   3   1871.50   1851.68     94.15 o
  10   3   3    313.66    310.30     90.90 o
  11   3   3     51.83     75.21     97.14 <
  12   3   3    936.95    987.74     97.21 o
  13   3   3    435.85    363.60     94.04 o
  14   3   3   1619.94   1411.63    103.52 o
  15   3   3   4464.83   4663.76     97.42 o
  16   3   3    163.90    209.97    109.69 <
  17   3   3     18.95    -31.34    115.94 <
   1   4   3  19075.60  19268.70    121.33 o
   2   4   3  43952.80  43108.20    137.26 o
   3   4   3  71832.80  69035.70    154.01 o
   4   4   3  53551.10  52504.00    144.70 o
   5   4   3   8598.15   8746.68    107.36 o
   6   4   3  13352.70  13032.80    114.10 o
   7   4   3  46978.30  46495.70    152.95 o
   8   4   3  18002.00  17828.10    120.76 o
   9   4   3   1314.05   1367.60    109.78 o
  10   4   3    840.47    768.20    103.47 o
  11   4   3  31871.30  31191.90    134.53 o
  12   4   3  30201.00  29816.30    137.49 o
  13   4   3  19505.90  18929.10    126.96 o
  14   4   3     97.17    150.42    112.82 <
  15   4   3     48.78    191.15    128.48 <
  16   4   3   4323.89   4553.13    131.98 o
   0   5   3   1060.71   1254.54    175.64 o
   1   5   3   6267.35   6293.54    126.00 o
   2   5   3   4576.57   4667.77    119.53 o
   3   5   3     10.41    -43.87    109.68 <
   4   5   3    739.79    818.35    109.74 o
   5   5   3   4330.64   4430.06    116.33 o
   6   5   3   4440.41   4417.45    116.33 o
   7   5   3    137.23    181.77    112.82 <
   8   5   3   5373.74   5457.61    122.68 o
   9   5   3   1456.99   1477.41    116.06 o
  10   5   3    431.90    382.41    115.98 o
  11   5   3     56.30    147.28    122.21 <
  12   5   3    571.69    695.91    125.39 o
  13   5   3    191.47    184.90    134.76 <
  14   5   3    703.74    639.54    141.07 o
   1   6   3  17807.00  17793.50    155.53 o
   2   6   3  33354.40  32931.10    176.48 o
   3   6   3  27253.30  27475.50    172.50 o
   4   6   3    580.60    645.78    131.66 o
   5   6   3   7182.81   7331.46    135.42 o
   6   6   3  13901.50  13605.90    148.68 o
   7   6   3  30430.60  30048.90    182.27 o
   8   6   3  31370.70  31126.40    179.13 o
   9   6   3  17684.80  17833.60    171.17 o
  10   6   3     12.22    -21.94    141.01 <
  11   6   3   4306.02   4358.32    160.26 o
  12   6   3  13274.50  13294.90    158.01 o
   0   7   3   1100.67    997.21    222.65 o
   1   7   3   3363.72   3376.13    160.17 o
   2   7   3   2171.80   2362.98    156.90 o
   3   7   3     18.96      6.27    144.15 <
   4   7   3    700.90    752.41    144.21 o
   5   7   3   1469.74   1568.29    153.69 o
   6   7   3   1469.63   1376.95    153.69 o
   7   7   3     56.48    128.48    156.68 <
   8   7   3   2164.12   2253.04    156.90 o
   9   7   3    464.20    457.64    159.86 <
   1   8   3   6552.85   6818.99    201.39 o
   2   8   3  15142.10  15405.20    249.95 o
   3   8   3  23404.70  22571.40    238.53 o
   4   8   3  14964.40  14454.30    196.14 o
   0   0   4 387236.00 374670.00    598.08 o
   1   0   4   1584.01   1636.21    128.76 o
   2   0   4   4725.24   4995.53    126.15 o
   3   0   4   1918.35   1931.98    122.52 o
   4   0   4  70067.60  69166.90    224.77 o
   5   0   4    373.11    611.31    119.13 o
   6   0   4  55223.40  53977.70    186.00 o
   7   0   4   2948.26   3051.79    119.43 o
   8   0   4  12633.50  12591.70    145.86 o
   9   0   4      1.06    103.41    128.48 <
  10   0   4  61470.40  60807.00    184.34 o
  11   0   4    827.15    793.31    128.56 o
  12   0   4   7346.86   7088.69    135.47 o
  13   0   4     56.16    119.08    131.62 <
  14   0   4  72030.40  67834.30    180.68 o
  15   0   4    949.52    780.75    128.56 o
  16   0   4  25617.10  24571.80    203.86 o
  17   0   4   2210.59   2218.58    160.04 o
   1   1   4   1562.31   1557.51     84.78 o
   2   1   4   1274.37   1406.18     91.03 o
   3   1   4    552.36    639.70     87.80 o
   4   1   4   7914.76   8072.56     91.73 o
   5   1   4   4009.93   4022.82     88.14 o
   6   1   4   3563.77   3692.68     88.07 o
   7   1   4   1524.14   1556.60     91.01 o
   8   1   4    976.30   1125.97     94.09 o
   9   1   4    116.62     56.41     87.75 <
  10   1   4  13884.10  13826.00     91.90 o
  11   1   4   1395.40   1367.70     97.25 o
  12   1   4    990.54    934.48     87.80 o
  13   1   4   1122.28   1088.21     94.08 o
  14   1   4    216.62    341.61     94.02 o
  15   1   4   1069.47   1063.03     94.07 o
  16   1   4     71.28     50.14     97.15 <
  17   1   4    347.58    407.46    100.30 o
   0   2   4  40118.40  39885.90    170.83 o
   1   2   4     19.85    131.61     87.74 <
   2   2   4  24154.00  24190.60    109.56 o
   3   2   4    417.57    435.77     87.78 o
   4   2   4 128294.00 127271.00    174.97 o
   5   2   4    843.18   1009.89     84.68 o
   6   2   4  93139.50  90671.50    140.17 o
   7   2   4   2001.74   2009.21     91.04 o
   8   2   4  18205.20  17957.00    105.05 o
   9   2   4   1352.78   1273.65     90.98 o
  10   2   4 106152.00 104275.00    166.14 o
  11   2   4   2296.41   2376.16     87.89 o
  12   2   4    230.17    213.12     90.89 <
  13   2   4    743.90    592.55     90.92 o
  14   2   4  18962.10  18606.30    126.92 o
  15   2   4      8.11    119.08     94.01 <
  16   2   4  14473.70  14064.50    110.69 o
  17   2   4   1635.16   1690.77    109.79 o
   1   3   4    988.41   1050.82     87.83 o
   2   3   4    583.11    730.56     87.79 o
   3   3   4    438.09    413.81     87.78 o
   4   3   4   6126.46   6039.25     91.41 o
   5   3   4   2828.56   2874.71     84.83 o
   6   3   4   2117.63   2103.43     84.76 o
   7   3   4   1001.26   1050.64     84.68 o
   8   3   4   1017.82   1028.66     90.95 o
   9   3   4    101.09     84.61     84.61 <
  10   3   4  10695.80  10308.50    107.38 o
  11   3   4   1090.75   1194.82     94.08 o
  12   3   4    539.66    652.03     97.18 o
  13   3   4    936.46   1100.57    100.34 o
  14   3   4    195.32    219.38     97.15 <
  15   3   4    844.70    843.39    103.46 o
  16   3   4     23.90     21.94    109.68 <
   0   4   4 217368.00 202185.00    313.55 o
   1   4   4    881.58    887.50     87.81 o
   2   4   4   3243.88   3431.59     87.99 o
   3   4   4   1004.26   1028.70     94.09 o
   4   4   4  45978.90  44921.40    126.92 o
   5   4   4    246.51    297.75     87.76 o
   6   4   4  36002.90  35544.40    119.23 o
   7   4   4   1549.12   1527.86     97.26 o
   8   4   4   8343.55   8342.54    110.35 o
   9   4   4      3.15    128.48    100.28 <
  10   4   4  43782.50  42618.70    129.13 o
  11   4   4    429.61    426.29    103.44 o
  12   4   4   4916.85   4863.39    106.89 o
  13   4   4     23.78    181.75    112.81 <
  14   4   4  50429.70  49325.00    177.89 o
  15   4   4    638.41    605.03    128.53 o
   1   5   4    567.17    608.18     97.18 o
   2   5   4    826.27    827.79    103.47 o
   3   5   4    152.22    316.53    109.69 <
   4   5   4   2930.36   2986.54    122.48 o
   5   5   4   1540.08   1515.22    141.17 o
   6   5   4   1597.50   1734.85    100.39 o
   7   5   4    674.56    730.47    109.73 o
   8   5   4    295.00    307.15    109.70 <
   9   5   4     40.27     34.47    109.68 <
  10   5   4   6110.32   6144.57    119.56 o
  11   5   4    585.20    517.24    122.26 o
  12   5   4    644.68    802.53    125.39 o
  13   5   4    507.90    579.90    166.13 o
   0   6   4  23103.10  23353.00    222.87 o
   1   6   4     20.66    115.94    122.21 <
   2   6   4   9547.40   9844.40    129.32 o
   3   6   4    100.05     72.08    125.35 <
   4   6   4  53241.80  53152.00    175.30 o
   5   6   4    366.12    498.36    134.78 o
   6   6   4  42112.90  41940.30    209.36 o
   7   6   4    610.10    601.89    169.28 o
   8   6   4   8785.11   8521.71    220.61 o
   9   6   4    595.07    730.41    131.66 o
  10   6   4  51388.20  50870.90    187.70 o
  11   6   4    912.47    743.09    141.09 o
   1   7   4    190.59    206.84    166.10 <
   2   7   4     88.21    144.15    162.96 <
   3   7   4    119.73    250.71    166.09 <
   4   7   4   1875.74   1935.77    150.60 o
   5   7   4    723.63    733.60    153.62 o
   6   7   4    400.00    467.02    166.12 <
   7   7   4    228.83    175.51    178.64 <
   8   7   4    432.26    604.95    172.40 o
   1   8   4    264.78    401.17    683.24 <
   1   0   5  22402.20  21615.60    154.10 o
   2   0   5  27731.20  27213.50    138.76 o
   3   0   5  12537.30  12708.20    111.11 o
   4   0   5  14843.40  14608.00    120.86 o
   5   0   5     13.31     65.81    115.94 <
   6   0   5  64849.20  66608.70    179.29 o
   7   0   5 107406.00 106388.00    215.86 o
   8   0   5 100767.00  98659.00    193.47 o
   9   0   5  10603.30  10626.50    129.55 o
  10   0   5    320.69    382.39    125.37 o
  11   0   5   6322.56   6333.50    129.06 o
  12   0   5  20662.50  20443.60    149.39 o
  13   0   5  14625.90  14359.90    148.73 o
  14   0   5   3210.91   2910.96    141.31 o
  15   0   5      1.29    -34.47    134.74 <
  16   0   5   4530.02   4079.20    153.99 o
   0   1   5   1797.59   1598.06    109.89 o
   1   1   5   2825.70   2875.85     81.72 o
   2   1   5  16717.20  16158.80     95.65 o
   3   1   5  11827.10  11765.80     95.14 o
   4   1   5   6060.05   5986.18     81.96 o
   5   1   5    504.63    420.10     81.51 o
   6   1   5    937.85   1116.50     81.54 o
   7   1   5    346.08    435.70     90.90 o
   8   1   5    236.43    238.20     87.76 <
   9   1   5   1175.87   1245.17     84.68 o
  10   1   5    764.79    846.55     87.79 o
  11   1   5    451.27    426.30     90.90 o
  12   1   5   6412.54   6445.93     91.28 o
  13   1   5   5037.02   5096.66     97.47 o
  14   1   5    156.20    131.62     94.02 <
  15   1   5    255.85    228.79     97.16 <
  16   1   5    902.95    837.15    100.33 o
   1   2   5  14889.90  14734.20     98.57 o
   2   2   5 113003.00 107189.00    142.54 o
   3   2   5  88317.20  85524.10    139.22 o
   4   2   5  24887.20  25056.80    115.39 o
   5   2   5    414.28    257.05     81.50 o
   6   2   5   3914.34   3892.35     81.75 o
   7   2   5   3830.10   3787.81     81.73 o
   8   2   5   9738.41   9592.51     88.41 o
   9   2   5   7346.71   7473.91     94.53 o
  10   2   5    805.78    968.84     87.79 o
  11   2   5  17411.40  17082.10    107.83 o
  12   2   5  44154.80  42737.30    116.16 o
  13   2   5  19900.90  19121.00    101.59 o
  14   2   5   7513.05   7317.94    107.06 o
  15   2   5    905.78    931.22    100.33 o
  16   2   5  18194.60  17419.10    129.97 o
   0   3   5   1034.88   1050.72    122.32 o
   1   3   5   1616.33   1744.77     81.59 o
   2   3   5  11855.70  11648.40     88.65 o
   3   3   5   8898.73   8610.81     85.26 o
   4   3   5   4706.84   4665.51     88.09 o
   5   3   5    204.71    162.97     81.49 <
   6   3   5    645.58    711.69     78.38 o
   7   3   5    274.82    225.66     78.36 <
   8   3   5    156.69    188.04     81.48 <
   9   3   5   1097.96   1138.38     87.81 o
  10   3   5    676.95    554.91     84.65 o
  11   3   5    468.76    463.92     90.90 o
  12   3   5   4981.41   4901.33     94.32 o
  13   3   5   3707.04   3671.98    106.80 o
  14   3   5     90.75     28.20    106.55 <
  15   3   5    297.24    310.28    115.96 <
   1   4   5  13814.50  13400.20     88.70 o
   2   4   5  19642.30  19591.20    101.82 o
   3   4   5   9823.16   9690.27     91.57 o
   4   4   5  10397.60  10451.20     94.75 o
   5   4   5      5.57    -53.27     84.61 <
   6   4   5  40300.40  39740.10    116.11 o
   7   4   5  67331.70  66026.50    144.44 o
   8   4   5  65137.70  62397.60    147.35 o
   9   4   5   7284.86   7346.84    100.77 o
  10   4   5    262.01    294.61     94.02 o
  11   4   5   4830.66   4705.82    100.59 o
  12   4   5  15489.70  15381.60    120.27 o
  13   4   5  10780.80  10611.10    132.52 o
  14   4   5   2464.33   2407.25    116.12 o
   0   5   5    714.32    968.77    128.54 o
   1   5   5   1323.08   1351.86     97.23 o
   2   5   5   6818.79   6826.65     97.61 o
   3   5   5   4602.60   4684.24     97.46 o
   4   5   5   2311.69   2319.46     97.30 o
   5   5   5    372.07    457.62     97.17 o
   6   5   5    525.53    620.67    100.31 o
   7   5   5    117.54    175.49    106.55 <
   8   5   5    147.55    159.83    115.95 <
   9   5   5    352.32    451.34    119.10 o
  10   5   5    289.02    250.73    119.10 <
  11   5   5    163.76    125.36    125.36 <
  12   5   5   3178.05   3221.60    131.88 o
   1   6   5   7350.92   7462.97    122.81 o
   2   6   5  48365.10  47868.40    151.98 o
   3   6   5  36542.90  35623.30    150.82 o
   4   6   5  10920.60  10797.00    123.09 o
   5   6   5    166.83    303.99    119.09 <
   6   6   5   2902.60   3017.06    135.00 o
   7   6   5   3307.97   3262.75    141.31 o
   8   6   5   6557.04   6671.19    151.05 o
   9   6   5   3831.17   3914.03    150.78 o
  10   6   5    385.32    366.72    263.29 <
   0   7   5    175.11    141.03    231.91 <
   1   7   5    289.20    407.44    166.11 <
   2   7   5   3139.52   3340.86    156.99 o
   3   7   5   2571.36   2536.11    166.35 o
   4   7   5   1432.75   1307.90    175.64 o
   5   7   5     14.43    150.41    153.55 <
   6   7   5    170.90    206.84    178.63 <
   0   0   6     93.04    109.68    131.62 <
   1   0   6  88217.20  84502.80    179.17 o
   2   0   6   2273.83   2380.05    125.60 o
   3   0   6  19631.80  19033.50    137.05 o
   4   0   6   3089.72   2987.86    119.39 o
   5   0   6  72478.20  69471.40    152.72 o
   6   0   6   2481.50   2533.81    106.75 o
   7   0   6   2253.04   2417.05    109.87 o
   8   0   6     17.19     -6.27    115.94 <
   9   0   6  20039.00  19586.90    155.75 o
  10   0   6   3578.54   3515.22    141.36 o
  11   0   6  40174.90  39828.50    170.58 o
  12   0   6     39.03    119.08    128.48 <
  13   0   6  12764.50  12660.40    148.50 o
  14   0   6    594.34    626.96    141.07 o
  15   0   6  37705.30  35306.70    186.11 o
   1   1   6   5274.91   5197.59     81.85 o
   2   1   6    728.66    906.18     75.25 o
   3   1   6   2108.06   2194.33     78.48 o
   4   1   6    486.87    454.55     75.24 o
   5   1   6   1504.49   1509.10     72.16 o
   6   1   6    567.20    623.86     78.37 o
   7   1   6    160.16    329.07     81.48 o
   8   1   6    512.15    489.02     97.18 o
   9   1   6     74.22     53.27     78.34 <
  10   1   6     69.01      6.27     90.88 <
  11   1   6    855.91    987.65     94.06 o
  12   1   6   2408.32   2281.73     94.16 o
  13   1   6   2201.60   2240.58     97.28 o
  14   1   6      1.31     40.74     97.14 <
  15   1   6     12.15    -78.34    106.54 <
   0   2   6   2587.83   2575.12    106.77 o
   1   2   6  38955.00  38291.70    110.01 o
   2   2   6    836.30    909.37     75.26 o
   3   2   6   4075.10   4143.79     75.46 o
   4   2   6      5.84     87.74     81.47 <
   5   2   6  89937.30  88231.90    134.07 o
   6   2   6   7062.18   6943.40     85.06 o
   7   2   6   6493.53   6612.01     91.31 o
   8   2   6    496.32    557.98     81.50 o
   9   2   6  77006.40  75540.60    125.40 o
  10   2   6    129.39    322.79     84.61 o
  11   2   6  17600.80  17686.20    107.79 o
  12   2   6     48.77     28.20     97.14 <
  13   2   6   3754.60   3942.17    106.80 o
  14   2   6    203.74    347.87    106.56 o
   1   3   6   3572.90   3623.07     81.70 o
   2   3   6    640.27    670.92     75.24 o
   3   3   6   1943.11   1904.91     75.32 o
   4   3   6    322.23    300.90     75.22 o
   5   3   6   1129.83   1257.61     78.40 o
   6   3   6    379.82    178.66     81.50 <
   7   3   6    260.38    297.74     84.62 o
   8   3   6    448.05    448.24     81.50 o
   9   3   6     35.93     37.60     84.61 <
  10   3   6     54.96     18.80     94.01 <
  11   3   6    838.16    993.89     90.92 o
  12   3   6   1771.72   1785.05     94.11 o
  13   3   6   1517.35   1486.76    106.64 o
  14   3   6      0.33    103.41    388.56 <
   0   4   6    106.57    150.42    112.82 <
   1   4   6  57995.80  56496.90    110.97 o
   2   4   6   1249.11   1176.15     81.55 o
   3   4   6  12989.90  13057.90     98.04 o
   4   4   6   1899.87   2014.45     81.58 o
   5   4   6  50227.60  49223.80    123.20 o
   6   4   6   1304.24   1423.91     84.68 o
   7   4   6   1677.65   1709.73     90.98 o
   8   4   6     18.16    -25.07     90.88 <
   9   4   6  15462.70  15427.40    104.45 o
  10   4   6   2323.24   2152.87    106.70 o
  11   4   6  28445.40  27886.40    130.82 o
  12   4   6     25.69     68.94    106.54 <
   1   5   6   2622.83   2624.32     94.17 o
   2   5   6    264.67    275.80     94.02 <
   3   5   6    670.52    736.72     94.05 o
   4   5   6    246.07    344.75     87.75 o
   5   5   6    753.59    733.62     94.05 o
   6   5   6    286.67    347.89     97.16 o
   7   5   6     32.81     37.60    103.41 <
   8   5   6    183.30    247.58    115.96 <
   9   5   6     60.12     37.60    122.21 <
  10   5   6     36.69     87.74    119.08 <
   0   6   6   1063.85   1269.98    166.19 o
   1   6   6  20353.40  20420.30    155.57 o
   2   6   6    233.32    225.65    122.23 <
   3   6   6   2276.89   2353.64    134.94 o
   4   6   6      5.37    115.94    134.74 <
   5   6   6  44776.20  43918.70    148.26 o
   6   6   6   2787.78   2803.29    125.57 o
   7   6   6   3146.24   2986.04    147.57 o
   1   0   7   7781.28   8353.70    122.94 o
   2   0   7  22652.00  22715.60    130.70 o
   3   0   7  66905.90  63750.00    174.41 o
   4   0   7  23785.00  23068.10    140.31 o
   5   0   7   4115.62   4161.32    110.00 o
   6   0   7   6904.44   7151.46    119.66 o
   7   0   7  24685.50  24646.00    143.44 o
   8   0   7   7804.10   8086.86    113.41 o
   9   0   7   2130.47   2168.40    128.66 o
  10   0   7   1172.90   1373.57    134.85 o
  11   0   7  24299.50  24913.10    155.96 o
  12   0   7  24320.70  24686.80    168.67 o
  13   0   7   9803.03   9907.51    157.66 o
   0   1   7    755.11    614.54    116.01 o
   1   1   7   7253.69   7196.56     78.77 o
   2   1   7   4062.70   4020.14     78.58 o
   3   1   7     98.15     75.21     72.08 <
   4   1   7     86.70     62.68     75.21 <
   5   1   7   1924.50   1901.59     72.17 o
   6   1   7   4178.24   4129.71     81.71 o
   7   1   7    180.31    216.24     84.62 <
   8   1   7   1159.83   1248.15     78.40 o
   9   1   7   4389.16   4415.59     91.14 o
  10   1   7      2.20    144.15     94.01 <
  11   1   7      4.89     68.94     90.87 <
  12   1   7    287.44    329.09    100.29 o
  13   1   7   1376.18   1458.40    109.77 o
   1   2   7  25312.10  25097.20    108.52 o
   2   2   7  26164.20  25946.30    102.19 o
   3   2   7  17004.00  16926.40     85.65 o
   4   2   7    835.86   1006.48     78.39 o
   5   2   7   6844.58   6712.98     81.87 o
   6   2   7  10880.70  10898.50     94.72 o
   7   2   7  40763.60  40479.60    106.26 o
   8   2   7  29417.30  29650.20    105.44 o
   9   2   7  15009.50  15221.50     91.77 o
  10   2   7    181.02    203.71     87.75 <
  11   2   7   3947.44   4052.61    103.67 o
  12   2   7   5764.50   5969.52    100.64 o
   0   3   7    843.22   1106.81    103.47 o
   1   3   7   5726.18   5619.12     84.95 o
   2   3   7   3182.84   3206.52     78.51 o
   3   3   7     57.04    137.88     81.48 <
   4   3   7    143.04    307.12     84.61 o
   5   3   7   1369.64   1386.33     75.28 o
   6   3   7   2860.50   2926.11     84.77 o
   7   3   7    139.24    256.98     81.48 o
   8   3   7    799.29    849.65     84.65 o
   9   3   7   3287.29   3046.06     94.21 o
  10   3   7     24.64     34.47     97.14 <
  11   3   7      3.89     75.21    100.28 <
  12   3   7    220.34     94.02    181.77 <
   1   4   7   5796.46   5942.40     84.94 o
   2   4   7  15974.30  16034.90     98.18 o
   3   4   7  45082.90  43974.10    116.18 o
   4   4   7  15667.50  15751.10    101.31 o
   5   4   7   2415.15   2448.08     84.74 o
   6   4   7   5046.26   5077.41     91.17 o
   7   4   7  18331.00  18380.80    104.64 o
   8   4   7   6135.60   6398.90    106.96 o
   9   4   7   1753.62   1772.47    106.66 o
  10   4   7    781.68    755.57    109.73 o
   0   5   7    227.48    457.57    150.43 o
   1   5   7   3225.75   3224.93     97.34 o
   2   5   7   1718.77   1706.57     97.25 o
   3   5   7     46.37     81.48     97.14 <
   4   5   7      7.65     40.74    100.28 <
   5   5   7   1022.39   1069.25    100.34 o
   6   5   7   2260.90   2303.39    100.42 o
   7   5   7     87.91    150.42    109.68 <
   8   5   7    644.46    695.94    172.42 o
   1   6   7  12273.80  11647.40    135.80 o
   2   6   7  13389.10  12922.90    145.38 o
   3   6   7  10091.40   9634.87    141.92 o
   0   0   8  51826.60  51800.20    214.18 o
   1   0   8    506.94    608.13    109.71 o
   2   0   8     69.43    156.69    112.81 <
   3   0   8   2351.92   2294.33    119.27 o
   4   0   8  48362.90  48612.30    139.13 o
   5   0   8    419.59    677.04    115.97 o
   6   0   8  19351.60  19432.90    142.82 o
   7   0   8    795.93    855.91    125.41 o
   8   0   8   5516.10   5462.57    119.50 o
   9   0   8    527.04    319.73    144.19 <
  10   0   8  42089.60  42155.80    176.98 o
  11   0   8      6.02    184.88    144.15 <
   1   1   8    294.83    388.64     75.22 o
   2   1   8   3063.17   3152.70     81.64 o
   3   1   8    898.62    909.29     81.52 o
   4   1   8    109.37    147.29     84.61 <
   5   1   8    961.68    987.71     84.66 o
   6   1   8   2170.47   2262.56     87.87 o
   7   1   8   1948.45   1989.23     84.71 o
   8   1   8   3944.37   4018.11     87.96 o
   9   1   8     35.12     62.67     94.01 <
  10   1   8    145.24    175.50     94.02 <
  11   1   8    433.75    454.50    100.30 o
   0   2   8  51631.30  50381.20    162.10 o
   1   2   8    670.51    764.94     84.64 o
   2   2   8  17827.60  18309.60    101.47 o
   3   2   8    522.28    645.74     84.64 o
   4   2   8  21505.50  22422.40    117.59 o
   5   2   8   1338.48   1571.31     84.68 o
   6   2   8  33423.40  34166.20    105.66 o
   7   2   8    415.58    476.43     94.03 o
   8   2   8   5809.18   5787.39     97.50 o
   9   2   8    636.27    655.19     94.05 o
  10   2   8  24781.30  24672.50    111.41 o
   1   3   8    188.65    357.27     81.48 o
   2   3   8   2035.83   2136.83     84.72 o
   3   3   8    799.53    827.70     84.65 o
   4   3   8     53.69    188.02     87.74 <
   5   3   8    753.97    739.89     84.65 o
   6   3   8   1939.69   1951.53     87.85 o
   7   3   8   1398.99   1524.29     90.96 o
   8   3   8   3500.39   3696.51     97.36 o
   9   3   8     39.18     12.53     97.14 <
   0   4   8  37541.60  37172.30    179.72 o
   1   4   8    375.82    520.30     90.90 o
   2   4   8     12.70     59.54     90.87 <
   3   4   8   1508.22   1549.49     97.24 o
   4   4   8  34301.70  34329.20    124.89 o
   5   4   8    328.78    423.12     97.16 o
   6   4   8  14513.10  14491.30    110.69 o
   7   4   8    510.72    410.63    100.31 o
   1   5   8    165.20    181.77    112.82 <
   2   5   8   1804.08   1850.95    106.67 o
   3   5   8    365.48    -12.54    554.77 <
   1   0   9   5992.61   6307.32    160.44 o
   2   0   9  13765.20  14227.00    132.79 o
   3   0   9   8029.63   8441.67    126.00 o
   4   0   9   7643.47   8008.03    116.51 o
   5   0   9    167.59    310.26    122.22 <
   6   0   9  13570.20  13579.00    167.52 o
   7   0   9  19429.20  19456.90    168.14 o
   8   0   9  30472.00  30177.90    169.30 o
   0   1   9    489.53    843.20    128.52 o
   1   1   9     60.60     65.81     90.88 <
   2   1   9   3123.02   3252.96     87.92 o
   3   1   9   1019.05   1273.07     97.21 o
   4   1   9     88.95    141.02     90.88 <
   5   1   9      3.10   -184.88     94.01 <
   6   1   9    178.83    266.39     97.15 <
   7   1   9    466.66    517.20    106.57 o
   8   1   9      3.15    112.81    181.75 <
   1   2   9   3680.26   3982.81     94.23 o
   2   2   9  32712.70  33413.70    115.18 o
   3   2   9  15546.00  16783.30    107.61 o
   4   2   9   6366.27   6928.35     94.39 o
   5   2   9    365.87    332.24     97.16 o
   6   2   9   5363.64   5700.69    106.91 o
   0   3   9    429.28    366.73    134.78 <
   1   3   9     14.84     34.47     97.14 <
   2   3   9   2463.92   2561.04     94.16 o
   3   3   9    891.40    899.85     94.06 o
   4   3   9     89.43    134.75     90.88 <
   5   3   9      5.70    369.76    263.22 <

loop_
 _twin_refln_datum_id
 _twin_refln_individual_id
 _twin_refln_index_h
 _twin_refln_index_k
 _twin_refln_index_l
 _twin_refln_F_squared_calc
 _twin_refln_F_squared_meas
 _twin_refln_F_squared_sigma
 _twin_refln_include_status
 ? ? ? ? ? ? ? ? ?

