
#=======================================================================
data_global
#=======================================================================

_audit_creation_method                   'Jana2006 Version : 11/10/2017'


# 1. PROCESSING SUMMARY (IUCr Office Use Only)

_journal_date_recd_electronic            ?
_journal_date_to_coeditor                ?
_journal_date_from_coeditor              ?
_journal_date_accepted                   ?
_journal_date_printers_first             ?
_journal_date_printers_final             ?
_journal_date_proofs_out                 ?
_journal_date_proofs_in                  ?
_journal_coeditor_name                   ?
_journal_coeditor_code                   ?
_journal_coeditor_notes
; ?
;
_journal_techeditor_code                 ?
_journal_paper_category                  ?
_journal_techeditor_notes
; ?
;
_journal_coden_ASTM                      ?
_journal_name_full                       'Acta Crystallographica Section C'
_journal_year                            ?
_journal_volume                          ?
_journal_issue                           ?
_journal_page_first                      ?
_journal_page_last                       ?
_journal_suppl_publ_number               ?
_journal_suppl_publ_pages                ?

#=======================================================================

# 2. SUBMISSION DETAILS

_publ_contact_author_name                ?
_publ_contact_author_address
; ?
;
_publ_contact_author_email               ?
_publ_contact_author_fax                 ?
_publ_contact_author_phone               ?

_publ_requested_journal                  'Acta Crystallographica Section C'
_publ_requested_category                 ?

_publ_contact_letter
; ?
;

#=======================================================================

# 3. TITLE AND AUTHOR LIST

_publ_section_title
; ?
;
_publ_section_title_footnote
; ?
;
loop_
 _publ_author_name
 _publ_author_footnote
 _publ_author_address
; ?      # name
;
; ?      # footnote
;
; ?      # address
;

#=======================================================================

# 4. TEXT

_publ_section_synopsis
; ?
;
_publ_section_abstract
; ?
;
_publ_section_comment
; ?
;
_publ_section_introduction
; ?
;
_publ_section_experimental
; ?
;
_publ_section_exptl_prep
; ?
;
_publ_section_exptl_refinement
; ?
;
_publ_section_exptl_solution
; ?
;
_publ_section_discussion
; ?
;
_publ_section_acknowledgements
; ?
;
_publ_section_references
;
;
_publ_section_figure_captions
; ?
;
_publ_section_table_legends
; ?
;

#=======================================================================
data_I
#=======================================================================

# 5. CHEMICAL DATA

_chemical_name_systematic
; ?
;
_chemical_name_common                    ?
_chemical_formula_moiety                 ?
_chemical_formula_structural             ?
_chemical_formula_analytical             ?
_chemical_formula_iupac                  ?
_chemical_formula_sum                    'Eu1 Ga5 Pt3'
_chemical_formula_weight                 1085.8
_chemical_melting_point                  ?
_chemical_compound_source                ?
_chemical_absolute_configuration         .

#=======================================================================

# 6. CRYSTAL DATA

_symmetry_cell_setting                   orthorhombic
_symmetry_space_group_name_H-M           'P n m a'
_symmetry_space_group_name_Hall          '-P -2xabc;-2yb;-2zac'
_symmetry_Int_Tables_number              62

loop_
 _space_group_symop_id
 _space_group_symop_operation_xyz
 1   x,y,z
 2   -x+1/2,-y,z+1/2
 3   -x,y+1/2,-z
 4   x+1/2,-y+1/2,-z+1/2
 5   -x,-y,-z
 6   x+1/2,y,-z+1/2
 7   x,-y+1/2,z
 8   -x+1/2,y+1/2,z+1/2

_cell_length_a                           20.8501(5)
_cell_length_b                           4.1197(15)
_cell_length_c                           7.3848
_cell_angle_alpha                        90
_cell_angle_beta                         90
_cell_angle_gamma                        90
_cell_volume                             634.3(2)

loop_
 _twin_individual_id
 _twin_individual_mass_fraction_refined
 _twin_individual_twin_matrix_11
 _twin_individual_twin_matrix_12
 _twin_individual_twin_matrix_13
 _twin_individual_twin_matrix_21
 _twin_individual_twin_matrix_22
 _twin_individual_twin_matrix_23
 _twin_individual_twin_matrix_31
 _twin_individual_twin_matrix_32
 _twin_individual_twin_matrix_33
 ? ? ? ? ? ? ? ? ? ? ?

_cell_formula_units_Z                    4

_cell_measurement_reflns_used            ?
_cell_measurement_theta_min              ?
_cell_measurement_theta_max              ?
_cell_measurement_temperature            293
_cell_special_details
; ?
;

_exptl_crystal_density_diffrn            11.3696
_exptl_crystal_density_meas              ?
_exptl_crystal_density_method            ?
_exptl_crystal_F_000                     1808

_exptl_absorpt_coefficient_mu            96.354
_exptl_crystal_description               ?
_exptl_crystal_size_max                  ?
_exptl_crystal_size_mid                  ?
_exptl_crystal_size_min                  ?
_exptl_crystal_size_rad                  ?
_exptl_crystal_colour                    ?
_exptl_absorpt_correction_type           ?
_exptl_absorpt_process_details           ?
_exptl_absorpt_correction_T_min          ?
_exptl_absorpt_correction_T_max          ?
loop_
 _exptl_crystal_face_index_h
 _exptl_crystal_face_index_k
 _exptl_crystal_face_index_l
 _exptl_crystal_face_perp_dist
 ? ? ? ?

#=======================================================================

# 7. EXPERIMENTAL DATA

_exptl_special_details                   ?

_diffrn_ambient_temperature              293
_diffrn_source                           ?
_diffrn_source_power                     ?
_diffrn_source_voltage                   ?
_diffrn_source_current                   ?
_diffrn_radiation_type                   'Mo K\a'
_diffrn_radiation_source                 'X-ray tube'
_diffrn_radiation_wavelength             0.71073
_diffrn_radiation_monochromator          graphite
_diffrn_measurement_device               'four-circle diffractometer'
_diffrn_measurement_device_type          'IPDS Stoe'
_diffrn_detector                         ?
_diffrn_detector_area_resol_mean         ?
_diffrn_measurement_method               '??integration method??'
_diffrn_measurement_specimen_support     ?

_diffrn_reflns_number                    6234
_diffrn_reflns_theta_min                 1.95
_diffrn_reflns_theta_max                 30.54
_diffrn_reflns_theta_full                30.27
_diffrn_measured_fraction_theta_max      0.97
_diffrn_measured_fraction_theta_full     0.98
_diffrn_reflns_av_R_equivalents          0.045
_diffrn_reflns_av_unetI/netI             0.0265
_diffrn_reflns_limit_h_min               -28
_diffrn_reflns_limit_h_max               28
_diffrn_reflns_limit_k_min               -5
_diffrn_reflns_limit_k_max               5
_diffrn_reflns_limit_l_min               -10
_diffrn_reflns_limit_l_max               10
_diffrn_reflns_reduction_process         ?

_diffrn_standards_number                 ?
_diffrn_standards_interval_count         ?
_diffrn_standards_interval_time          ?
_diffrn_standards_decay_%                ?
loop_
_diffrn_standard_refln_index_h
_diffrn_standard_refln_index_k
_diffrn_standard_refln_index_l
  ? ? ?

_diffrn_radiation_probe                  X-ray

#=======================================================================

# 8. REFINEMENT DATA

_refine_special_details
; ?
;

_reflns_number_total                     1063
_reflns_number_gt                        819
_reflns_threshold_expression             'I>3\s(I)'

_refine_ls_structure_factor_coef         Fsqd
_refine_ls_R_factor_gt                   0.0212
_refine_ls_wR_factor_gt                  0.0422
_refine_ls_R_factor_all                  0.0342
_refine_ls_wR_factor_ref                 0.0443
_refine_ls_goodness_of_fit_ref           1.13
_refine_ls_goodness_of_fit_gt            1.24
_refine_ls_restrained_S_gt               ?
_refine_ls_restrained_S_all              ?
_refine_ls_number_reflns                 1063
_refine_ls_number_parameters             56
_refine_ls_number_restraints             0
_refine_ls_number_constraints            0
_refine_ls_weighting_scheme              sigma
_refine_ls_weighting_details             'w=1/(\s^2^(I)+0.0004I^2^)'
_refine_ls_hydrogen_treatment            ?
_refine_ls_shift/su_max                  0.0496
_refine_ls_shift/su_mean                 0.0062
_refine_diff_density_max                 2.51
_refine_diff_density_min                 -1.69
_refine_ls_extinction_method
 'B-C type 1 Lorentzian isotropic (Becker & Coppens, 1974)'
_refine_ls_extinction_coef               384(11)
_refine_ls_abs_structure_details         ?
_refine_ls_abs_structure_Flack           ?
_refine_ls_abs_structure_Rogers          ?

loop_
 _atom_type_symbol
 _atom_type_scat_dispersion_real
 _atom_type_scat_dispersion_imag
 _atom_type_scat_source
 Eu  -0.1578  3.6682
 'International Tables Vol C tables 4.2.6.8 and 6.1.1.1'
 Ga   0.2307  1.6083
 'International Tables Vol C tables 4.2.6.8 and 6.1.1.1'
 Pt  -1.7033  8.3905
 'International Tables Vol C tables 4.2.6.8 and 6.1.1.1'

_computing_data_collection               ?
_computing_cell_refinement               ?
_computing_data_reduction                ?
_computing_structure_solution            ?
_computing_structure_refinement          ?
_computing_molecular_graphics            ?
_computing_publication_material          ?

loop_
 _restr_distance_atom_site_label_1
 _restr_distance_site_symmetry_1
 _restr_distance_atom_site_label_2
 _restr_distance_site_symmetry_2
 _restr_distance_target
 _restr_distance_target_weight_param
 ? ? ? ? ? ?

loop_
 _restr_angle_atom_site_label_1
 _restr_angle_site_symmetry_1
 _restr_angle_atom_site_label_2
 _restr_angle_site_symmetry_2
 _restr_angle_atom_site_label_3
 _restr_angle_site_symmetry_3
 _restr_angle_target
 _restr_angle_target_weight_param
 ? ? ? ? ? ? ? ?

loop_
 _restr_torsion_atom_site_label_1
 _restr_torsion_site_symmetry_1
 _restr_torsion_atom_site_label_2
 _restr_torsion_site_symmetry_2
 _restr_torsion_atom_site_label_3
 _restr_torsion_site_symmetry_3
 _restr_torsion_atom_site_label_4
 _restr_torsion_site_symmetry_4
 _restr_torsion_angle_target
 _restr_torsion_weight_param
 ? ? ? ? ? ? ? ? ? ?

loop_
 _restr_equal_distance_atom_site_label_1
 _restr_equal_distance_site_symmetry_1
 _restr_equal_distance_atom_site_label_2
 _restr_equal_distance_site_symmetry_2
 _restr_equal_distance_class_class_id
 _restr_equal_distance_class_target_weight_param
 ? ? ? ? ? ?

loop_
 _restr_equal_angle_atom_site_label_1
 _restr_equal_angle_site_symmetry_1
 _restr_equal_angle_atom_site_label_2
 _restr_equal_angle_site_symmetry_2
 _restr_equal_angle_atom_site_label_3
 _restr_equal_angle_site_symmetry_3
 _restr_equal_angle_class_class_id
 _restr_equal_angle_class_target_weight_param
 ? ? ? ? ? ? ? ?

loop_
 _restr_equal_torsion_atom_site_label_1
 _restr_equal_torsion_site_symmetry_1
 _restr_equal_torsion_atom_site_label_2
 _restr_equal_torsion_site_symmetry_2
 _restr_equal_torsion_atom_site_label_3
 _restr_equal_torsion_site_symmetry_3
 _restr_equal_torsion_atom_site_label_4
 _restr_equal_torsion_site_symmetry_4
 _restr_equal_torsion_class_class_id
 _restr_equal_torsion_class_target_weight_param
 ? ? ? ? ? ? ? ? ? ?


#=======================================================================

# 9. ATOMIC COORDINATES AND DISPLACEMENT PARAMETERS

loop_
 _atom_site_label
 _atom_site_type_symbol
 _atom_site_fract_x
 _atom_site_fract_y
 _atom_site_fract_z
 _atom_site_adp_type
 _atom_site_U_iso_or_equiv
 _atom_site_site_symmetry_multiplicity
 _atom_site_occupancy
 _atom_site_calc_flag
 _atom_site_refinement_flags
 _atom_site_disorder_assembly
 _atom_site_disorder_group
  Pt1 Pt 0.07239(2) 0.25 0.66830(6) Uani 0.00739(12) 4 1 d . . .
  Pt2 Pt 0.08544(2) 0.25 0.06977(6) Uani 0.00734(12) 4 1 d . . .
  Pt3 Pt 0.26423(2) 0.25 0.38788(6) Uani 0.00808(12) 4 1 d . . .
  Eu1 Eu 0.35908(3) 0.25 0.88177(9) Uani 0.00853(15) 4 1 d . . .
  Ga1 Ga 0.01110(7) 0.25 0.37103(19) Uani 0.0084(3) 4 1 d . . .
  Ga2 Ga 0.19933(7) 0.25 0.68592(18) Uani 0.0081(4) 4 1 d . . .
  Ga3 Ga 0.20736(7) 0.25 0.08303(19) Uani 0.0087(4) 4 1 d . . .
  Ga4 Ga 0.38398(7) 0.25 0.34707(19) Uani 0.0091(4) 4 1 d . . .
  Ga5 Ga 0.48104(7) 0.25 0.61504(19) Uani 0.0074(3) 4 1 d . . .

loop_
 _atom_site_aniso_label
 _atom_site_aniso_type_symbol
 _atom_site_aniso_U_11
 _atom_site_aniso_U_22
 _atom_site_aniso_U_33
 _atom_site_aniso_U_12
 _atom_site_aniso_U_13
 _atom_site_aniso_U_23
 Pt1 Pt 0.0078(2) 0.00878(18) 0.0056(2) 0 -0.00006(14) 0
 Pt2 Pt 0.0071(2) 0.00773(18) 0.0072(2) 0 -0.00087(15) 0
 Pt3 Pt 0.0081(2) 0.00785(18) 0.0083(2) 0 0.00048(15) 0
 Eu1 Eu 0.0094(3) 0.0079(2) 0.0083(3) 0 0.00063(20) 0
 Ga1 Ga 0.0100(7) 0.0077(5) 0.0074(6) 0 -0.0008(5) 0
 Ga2 Ga 0.0074(7) 0.0086(6) 0.0084(6) 0 0.0001(5) 0
 Ga3 Ga 0.0082(7) 0.0089(5) 0.0090(6) 0 0.0005(4) 0
 Ga4 Ga 0.0076(7) 0.0082(5) 0.0116(6) 0 -0.0013(5) 0
 Ga5 Ga 0.0079(6) 0.0072(5) 0.0070(6) 0 0.0001(4) 0

loop_
 _jana_atom_site_ADP_C_label
 _jana_atom_site_ADP_C_type_symbol
 _jana_atom_site_ADP_C_111
 _jana_atom_site_ADP_C_112
 _jana_atom_site_ADP_C_113
 _jana_atom_site_ADP_C_122
 _jana_atom_site_ADP_C_123
 _jana_atom_site_ADP_C_133
 _jana_atom_site_ADP_C_222
 _jana_atom_site_ADP_C_223
 _jana_atom_site_ADP_C_233
 _jana_atom_site_ADP_C_333
 ? ? ? ? ? ? ? ? ? ? ? ?

loop_
 _jana_atom_site_ADP_D_label
 _jana_atom_site_ADP_D_type_symbol
 _jana_atom_site_ADP_D_1111
 _jana_atom_site_ADP_D_1112
 _jana_atom_site_ADP_D_1113
 _jana_atom_site_ADP_D_1122
 _jana_atom_site_ADP_D_1123
 _jana_atom_site_ADP_D_1133
 _jana_atom_site_ADP_D_1222
 _jana_atom_site_ADP_D_1223
 _jana_atom_site_ADP_D_1233
 _jana_atom_site_ADP_D_1333
 _jana_atom_site_ADP_D_2222
 _jana_atom_site_ADP_D_2223
 _jana_atom_site_ADP_D_2233
 _jana_atom_site_ADP_D_2333
 _jana_atom_site_ADP_D_3333
 ? ? ? ? ? ? ? ? ? ? ? ? ? ? ? ? ?

loop_
 _jana_atom_site_ADP_E_label
 _jana_atom_site_ADP_E_type_symbol
 _jana_atom_site_ADP_E_11111
 _jana_atom_site_ADP_E_11112
 _jana_atom_site_ADP_E_11113
 _jana_atom_site_ADP_E_11122
 _jana_atom_site_ADP_E_11123
 _jana_atom_site_ADP_E_11133
 _jana_atom_site_ADP_E_11222
 _jana_atom_site_ADP_E_11223
 _jana_atom_site_ADP_E_11233
 _jana_atom_site_ADP_E_11333
 _jana_atom_site_ADP_E_12222
 _jana_atom_site_ADP_E_12223
 _jana_atom_site_ADP_E_12233
 _jana_atom_site_ADP_E_12333
 _jana_atom_site_ADP_E_13333
 _jana_atom_site_ADP_E_22222
 _jana_atom_site_ADP_E_22223
 _jana_atom_site_ADP_E_22233
 _jana_atom_site_ADP_E_22333
 _jana_atom_site_ADP_E_23333
 _jana_atom_site_ADP_E_33333
 ? ? ? ? ? ? ? ? ? ? ? ? ? ? ? ? ? ? ? ? ? ? ?

loop_
 _jana_atom_site_ADP_F_label
 _jana_atom_site_ADP_F_type_symbol
 _jana_atom_site_ADP_F_111111
 _jana_atom_site_ADP_F_111112
 _jana_atom_site_ADP_F_111113
 _jana_atom_site_ADP_F_111122
 _jana_atom_site_ADP_F_111123
 _jana_atom_site_ADP_F_111133
 _jana_atom_site_ADP_F_111222
 _jana_atom_site_ADP_F_111223
 _jana_atom_site_ADP_F_111233
 _jana_atom_site_ADP_F_111333
 _jana_atom_site_ADP_F_112222
 _jana_atom_site_ADP_F_112223
 _jana_atom_site_ADP_F_112233
 _jana_atom_site_ADP_F_112333
 _jana_atom_site_ADP_F_113333
 _jana_atom_site_ADP_F_122222
 _jana_atom_site_ADP_F_122223
 _jana_atom_site_ADP_F_122233
 _jana_atom_site_ADP_F_122333
 _jana_atom_site_ADP_F_123333
 _jana_atom_site_ADP_F_133333
 _jana_atom_site_ADP_F_222222
 _jana_atom_site_ADP_F_222223
 _jana_atom_site_ADP_F_222233
 _jana_atom_site_ADP_F_222333
 _jana_atom_site_ADP_F_223333
 _jana_atom_site_ADP_F_233333
 _jana_atom_site_ADP_F_333333
 ? ? ? ? ? ? ? ? ? ? ? ? ? ? ? ? ? ? ? ? ? ? ? ? ? ? ? ? ? ?


#=======================================================================

# 10. MOLECULAR GEOMETRY


loop_
 _geom_bond_atom_site_label_1
 _geom_bond_atom_site_label_2
 _geom_bond_site_symmetry_1
 _geom_bond_site_symmetry_2
 _geom_bond_distance
 _geom_bond_publ_flag
 ? ? ? ? ? ?

loop_
 _geom_angle_atom_site_label_1
 _geom_angle_atom_site_label_2
 _geom_angle_atom_site_label_3
 _geom_angle_site_symmetry_1
 _geom_angle_site_symmetry_2
 _geom_angle_site_symmetry_3
 _geom_angle
 _geom_angle_publ_flag
 ? ? ? ? ? ? ? ?

loop_
 _geom_torsion_atom_site_label_1
 _geom_torsion_atom_site_label_2
 _geom_torsion_atom_site_label_3
 _geom_torsion_atom_site_label_4
 _geom_torsion_site_symmetry_1
 _geom_torsion_site_symmetry_2
 _geom_torsion_site_symmetry_3
 _geom_torsion_site_symmetry_4
 _geom_torsion
 _geom_torsion_publ_flag
 ? ? ? ? ? ? ? ? ? ?

loop_
 _geom_hbond_atom_site_label_D
 _geom_hbond_atom_site_label_H
 _geom_hbond_atom_site_label_A
 _geom_hbond_site_symmetry_D
 _geom_hbond_site_symmetry_H
 _geom_hbond_site_symmetry_A
 _geom_hbond_distance_DH
 _geom_hbond_distance_HA
 _geom_hbond_distance_DA
 _geom_hbond_angle_DHA
 _geom_hbond_publ_flag
 ? ? ? ? ? ? ? ? ? ? ?


#=======================================================================

# 11. STRUCTURE-FACTOR LIST

loop_
 _refln_index_h
 _refln_index_k
 _refln_index_l
 _refln_F_squared_calc
 _refln_F_squared_meas
 _refln_F_squared_sigma
 _refln_observed_status
   2   0   0    1133.    1827.    3882. <
   4   0   0     310.     339.    2963. <
   6   0   0  208138.  220591.    4617. o
   8   0   0   10177.   10804.    2161. o
  10   0   0   16037.   15820.    2407. o
  12   0   0   71178.   69948.    2561. o
  14   0   0  182136.  180651.    3231. o
  16   0   0    2012.    2431.    2601. <
   2   1   0   39907.   41308.     953. o
   4   1   0  186610.  198037.    1225. o
   6   1   0  147918.  157934.    1294. o
   8   1   0  189872.  196297.    1648. o
  10   1   0  556765.  612275.    2665. o
  12   1   0   41600.   43111.    1069. o
  14   1   0    1031.    1259.     848. <
  16   1   0  253855.  273187.    1976. o
  18   1   0   19323.   20177.    1077. o
  20   1   0   25239.   25266.    1512. o
   0   2   0 1845210. 1980950.    4807. o
   2   2   0     660.     630.     581. <
   4   2   0     126.      48.     419. <
   6   2   0  141711.  144404.     885. o
   8   2   0    6671.    6782.     633. o
  10   2   0   10363.   11237.     691. o
  12   2   0   55376.   53562.     745. o
  14   2   0  137068.  138270.     856. o
  16   2   0    1439.    1832.     581. o
  18   2   0  110611.  113044.     928. o
  20   2   0   17367.   16941.     642. o
  22   2   0    1211.     815.     686. <
  24   2   0     108.     532.     855. <
  26   2   0   14659.   14751.     998. o
   2   3   0   20082.   20938.     548. o
   4   3   0   98052.   98272.     551. o
   6   3   0   68737.   70317.     565. o
   8   3   0   98743.   98850.     933. o
  10   3   0  314157.  308116.    1146. o
  12   3   0   24735.   25846.     621. o
  14   3   0     463.    -177.     605. <
  16   3   0  157034.  155407.    1187. o
  18   3   0   11736.   10761.     649. o
  20   3   0   16798.   15063.     772. o
  22   3   0   74224.   77724.    1047. o
  24   3   0     338.     444.     783. <
   0   4   0  764938.  724360.    1943. o
   2   4   0     266.      65.     549. <
   4   4   0       8.    -121.     427. <
   6   4   0   71858.   72844.     593. o
   8   4   0    2774.    2326.     590. o
  10   4   0    3102.    3433.     582. o
  12   4   0   32530.   32201.     614. o
  14   4   0   70467.   68339.     715. o
  16   4   0     605.    1565.     694. <
  18   4   0   62498.   58527.    1414. o
  20   4   0   10692.   11511.     770. o
   2   5   0    8882.    8963.     470. o
   4   5   0   47753.   48560.     551. o
   6   5   0   24441.   25164.     636. o
   8   5   0   41192.   42880.     689. o
  10   5   0  142308.  142091.     912. o
  12   5   0   11867.   11355.     778. o
  14   5   0     120.    -516.     678. <
   1   0   1    6236.    6661.    1909. o
   2   0   1    4839.    4239.    1886. <
   3   0   1     297.    -121.    1849. <
   4   0   1    2404.    3334.    2401. <
   5   0   1      72.      48.    2049. <
   6   0   1   37183.   36500.    1863. o
   7   0   1  140064.  139254.    2358. o
   8   0   1  119737.  113065.    2051. o
   9   0   1  104990.  108525.    1948. o
  10   0   1   16926.   17056.    1413. o
  11   0   1    6363.    6348.    1364. o
  12   0   1   33198.   33575.    1545. o
  13   0   1    4308.    4898.    1320. o
  14   0   1   11962.   11625.    1311. o
  15   0   1  132558.  127175.    1930. o
  16   0   1   58738.   56301.    1584. o
  17   0   1     124.     153.    1202. <
  18   0   1   59134.   52016.    1661. o
  19   0   1   14927.   13461.    1415. o
  20   0   1    1230.    1195.    1348. <
  21   0   1    2196.    1833.    1389. <
  22   0   1      69.     186.    1428. <
  23   0   1    1582.    1744.    2099. <
   0   1   1    1943.    1498.     891. <
   1   1   1     508.     589.     565. <
   2   1   1   34201.   36014.     738. o
   3   1   1   65606.   68416.     862. o
   4   1   1   45758.   48925.     589. o
   5   1   1  112659.  116830.     910. o
   6   1   1   26592.   28420.     635. o
   7   1   1     258.     436.     557. <
   8   1   1   93061.  100770.     936. o
   9   1   1   56774.   58244.     761. o
  10   1   1   14991.   15992.     671. o
  11   1   1     613.     823.     621. <
  12   1   1    4471.    4914.     640. o
  13   1   1   21857.   22049.     689. o
  14   1   1   77428.   76325.     936. o
  15   1   1   44728.   42659.     906. o
  16   1   1    7532.    7659.     665. o
  17   1   1    7273.    7372.     753. o
  18   1   1   34363.   33936.    1497. o
  19   1   1  124679.  124180.    1410. o
  20   1   1    1330.    1211.     856. <
  21   1   1   25684.   25834.     956. o
  22   1   1   16931.   17838.     894. o
  23   1   1      41.      65.     911. <
  24   1   1   12210.   11418.    1403. o
  25   1   1   45415.   44656.    2006. o
   1   2   1    3862.    4633.     364. o
   2   2   1    2820.    3479.     380. o
   3   2   1     177.      56.     363. <
   4   2   1    1611.    1293.     355. o
   5   2   1      60.     387.     355. <
   6   2   1   25307.   26210.     405. o
   7   2   1   94598.   96505.     593. o
   8   2   1   81319.   84080.     672. o
   9   2   1   73640.   74740.     555. o
  10   2   1   11698.   11597.     439. o
  11   2   1    4762.    4751.     421. o
  12   2   1   25158.   24967.     468. o
  13   2   1    3652.    3881.     437. o
  14   2   1    8315.    7751.     470. o
  15   2   1  102784.  102620.     632. o
  16   2   1   45114.   44229.     513. o
  17   2   1     113.     298.     452. <
  18   2   1   47952.   46446.     636. o
  19   2   1   12408.   12019.     479. o
  20   2   1    1063.     944.     492. <
  21   2   1    2081.    1930.     541. o
  22   2   1      49.     121.     548. <
  23   2   1    1354.    1275.     621. <
  24   2   1  109834.  108994.    1028. o
  25   2   1   31007.   32306.     801. o
  26   2   1     303.     645.     855. <
  27   2   1   32884.   31803.    1242. o
   0   3   1     843.     710.     428. <
   1   3   1     328.     718.     315. <
   2   3   1   17461.   17882.     343. o
   3   3   1   34818.   35000.     355. o
   4   3   1   23346.   23511.     344. o
   5   3   1   56735.   56893.     402. o
   6   3   1   13700.   13510.     374. o
   7   3   1     120.     210.     339. <
   8   3   1   49040.   49837.     474. o
   9   3   1   31236.   32419.     436. o
  10   3   1    8175.    8615.     405. o
  11   3   1     241.      89.     403. <
  12   3   1    2772.    2698.     420. o
  13   3   1   11635.   11687.     422. o
  14   3   1   47752.   45433.     496. o
  15   3   1   28526.   27656.     466. o
  16   3   1    5042.    4956.     445. o
  17   3   1    4116.    4267.     444. o
  18   3   1   20762.   20843.     505. o
  19   3   1   81267.   80822.     651. o
  20   3   1     959.    1089.     476. <
  21   3   1   17281.   17769.     552. o
  22   3   1   11874.   12118.     575. o
  23   3   1      45.     694.     605. <
  24   3   1    8316.    8943.     623. o
  25   3   1   32263.   30649.     809. o
   1   4   1    1730.    1720.     363. o
   2   4   1    1018.    1638.     387. o
   3   4   1      60.     653.     307. <
   4   4   1     823.     629.     307. <
   5   4   1      44.     323.     315. <
   6   4   1   12851.   12688.     341. o
   7   4   1   44184.   44848.     445. o
   8   4   1   36393.   37594.     468. o
   9   4   1   34836.   36810.     582. o
  10   4   1    5137.    4916.     420. o
  11   4   1    2734.    3166.     388. o
  12   4   1   13383.   13487.     422. o
  13   4   1    2552.    2519.     444. o
  14   4   1    3255.    3231.     420. o
  15   4   1   55959.   54966.     529. o
  16   4   1   23698.   22851.     587. o
  17   4   1      89.    -419.     516. <
  18   4   1   28117.   28751.     677. o
  19   4   1    7712.    8520.     566. o
  20   4   1     703.     742.     549. <
  21   4   1    1649.    1429.     541. <
   0   5   1     345.    2154.     581. o
   1   5   1     175.     500.     363. <
   2   5   1    8036.    8312.     364. o
   3   5   1   17310.   17900.     349. o
   4   5   1   10723.   10469.     381. o
   5   5   1   24305.   24919.     440. o
   6   5   1    5954.    6323.     388. o
   7   5   1      39.    -258.     428. <
   8   5   1   20034.   21146.     504. o
   9   5   1   13388.   14177.     487. o
  10   5   1    3518.    4152.     460. o
  11   5   1      54.     379.     484. <
  12   5   1    1416.     621.     468. <
  13   5   1    4454.    4590.     509. o
  14   5   1   22798.   21373.     529. o
  15   5   1   14196.   13432.     519. o
   0   0   2    2248.    2877.    1904. <
   1   0   2   16094.   15428.    1441. o
   2   0   2    1163.    1342.     994. <
   3   0   2  177837.  168642.    2126. o
   4   0   2      85.     436.    1154. <
   5   0   2   97914.   98500.    1736. o
   6   0   2    5140.    5460.    1446. o
   7   0   2   73548.   74679.    1585. o
   8   0   2    8291.    8600.    1222. o
   9   0   2  640844.  682731.    3421. o
  10   0   2    1428.    1858.    1058. <
  11   0   2      76.      24.    1137. <
  12   0   2    8605.    9164.    1211. o
  13   0   2     525.     290.    1259. <
  14   0   2     632.     888.    1162. <
  15   0   2   80753.   81243.    1522. o
  16   0   2   30833.   31056.    1308. o
  17   0   2   17285.   17531.    1165. o
  18   0   2    5848.    6474.    1101. o
  19   0   2     417.     847.    1154. <
  20   0   2     927.    1275.    1138. <
  21   0   2     645.    1138.    1089. <
  22   0   2   26502.   25872.    1274. o
  23   0   2  111616.  106977.    1609. o
  24   0   2    5974.    6324.    1205. o
  25   0   2    6909.    7111.    1222. o
  26   0   2    4593.    4113.    1245. o
  27   0   2     107.     -73.    1928. <
   1   1   2  195441.  199368.    1223. o
   2   1   2     893.     735.     719. <
   3   1   2  326194.  342875.    1355. o
   4   1   2    2637.    3011.     704. o
   5   1   2  125897.  129596.    1060. o
   6   1   2   15287.   15373.     706. o
   7   1   2  288391.  307043.    1303. o
   8   1   2    8509.    8853.     667. o
   9   1   2    6536.    6282.     649. o
  10   1   2      13.     -24.     597. <
  11   1   2   42688.   41696.     735. o
  12   1   2   13160.   12859.     685. o
  13   1   2  121049.  123512.     894. o
  14   1   2    6363.    6343.     786. o
  15   1   2   11575.   11312.     683. o
  16   1   2     274.     589.     678. <
  17   1   2    4618.    4982.     647. o
  18   1   2   18962.   20114.     791. o
  19   1   2   90744.   88001.    1190. o
  20   1   2    3079.    3054.     679. o
  21   1   2   16065.   16817.     805. o
  22   1   2    7577.    6896.     720. o
  23   1   2    4794.    5109.     736. o
  24   1   2   12908.   12961.     925. o
  25   1   2   53025.   53688.     948. o
  26   1   2    9631.    9450.     915. o
  27   1   2    1659.    1735.    1017. <
  28   1   2    2961.    2681.    1615. <
   0   2   2    1611.    2569.     590. o
   1   2   2   10883.   11502.     416. o
   2   2   2     768.     969.     396. <
   3   2   2  122521.  127179.     628. o
   4   2   2      43.     -97.     436. <
   5   2   2   64725.   63962.     648. o
   6   2   2    3637.    3738.     413. o
   7   2   2   50126.   50857.     520. o
   8   2   2    5864.    5924.     446. o
   9   2   2  459572.  467205.    1185. o
  10   2   2    1128.    1316.     444. <
  11   2   2      64.     -97.     468. <
  12   2   2    6520.    6829.     486. o
  13   2   2     473.     645.     452. <
  14   2   2     528.     581.     484. <
  15   2   2   62246.   61771.     626. o
  16   2   2   24027.   23450.     556. o
  17   2   2   13690.   13550.     609. o
  18   2   2    4807.    4795.     590. o
  19   2   2     243.     540.     653. <
  20   2   2     775.     839.     710. <
  21   2   2     592.    1081.     645. <
  22   2   2   21890.   21896.     757. o
  23   2   2   92149.   94435.     846. o
  24   2   2    4996.    5270.     630. o
  25   2   2    5803.    6145.     711. o
  26   2   2    3747.    3700.     735. o
  27   2   2      73.    -113.     799. <
   1   3   2  100818.  101045.     439. o
   2   3   2     485.    -113.     315. <
   3   3   2  157503.  151582.     559. o
   4   3   2    1397.    1154.     355. o
   5   3   2   65861.   66662.     487. o
   6   3   2    8008.    8228.     349. o
   7   3   2  155226.  149841.     529. o
   8   3   2    4726.    4983.     396. o
   9   3   2    3650.    4179.     404. o
  10   3   2      25.     508.     444. <
  11   3   2   24014.   23396.     482. o
  12   3   2    8254.    8304.     389. o
  13   3   2   80492.   78764.     596. o
  14   3   2    4081.    4195.     412. o
  15   3   2    6461.    6732.     445. o
  16   3   2     115.     355.     460. <
  17   3   2    2810.    2334.     477. o
  18   3   2   12620.   12451.     479. o
  19   3   2   63970.   63883.     613. o
  20   3   2    2306.    1865.     501. o
  21   3   2   11528.   11484.     567. o
  22   3   2    5106.    4850.     582. o
  23   3   2    3307.    2633.     622. o
  24   3   2    9104.    9237.     648. o
   0   4   2     961.    1541.     420. o
   1   4   2    5692.    6358.     340. o
   2   4   2     362.     904.     347. <
   3   4   2   63160.   62955.     441. o
   4   4   2       5.     266.     363. <
   5   4   2   28350.   29272.     393. o
   6   4   2    1858.    1639.     363. o
   7   4   2   21781.   21428.     416. o
   8   4   2    2830.    3190.     388. o
   9   4   2  224534.  221084.     630. o
  10   4   2     702.     516.     452. <
  11   4   2      58.     202.     395. <
  12   4   2    3446.    3458.     420. o
  13   4   2     413.     161.     436. <
  14   4   2     342.    -202.     419. <
  15   4   2   32816.   32310.     499. o
  16   4   2   12936.   13040.     503. o
  17   4   2    7580.    7436.     477. o
  18   4   2    2914.    3158.     517. o
  19   4   2      52.     161.     524. <
  20   4   2     474.     -40.     549. <
  21   4   2     445.    1259.    1138. <
   1   5   2   45208.   45550.     436. o
   2   5   2     227.     524.     371. <
   3   5   2   59477.   62160.     562. o
   4   5   2     624.     137.     403. <
   5   5   2   27950.   27605.     449. o
   6   5   2    3284.    3344.     380. o
   7   5   2   65001.   64148.     563. o
   8   5   2    2100.    1978.     428. o
   9   5   2    1591.    1768.     436. o
  10   5   2      42.     847.     468. <
  11   5   2   10358.   11032.     454. o
  12   5   2    4106.    4201.     525. o
  13   5   2   42968.   42566.     541. o
  14   5   2    2052.    1816.     581. o
   1   0   3  107312.  102514.    1351. o
   2   0   3  167298.  158124.    1550. o
   3   0   3     648.    1251.     936. <
   4   0   3   23819.   23366.    1270. o
   5   0   3   12450.   13772.    1113. o
   6   0   3     693.     936.    1122. <
   7   0   3   29498.   30508.    1222. o
   8   0   3     949.    1574.    1033. <
   9   0   3   57713.   59197.    1222. o
  10   0   3   17117.   16686.    1187. o
  11   0   3   29661.   30037.    1139. o
  12   0   3   28720.   28294.     989. o
  13   0   3   46469.   48765.    1208. o
  14   0   3    1917.    2423.     913. <
  15   0   3  156319.  164548.    1493. o
  16   0   3  308292.  320517.    1901. o
  17   0   3   56299.   59990.    1256. o
  18   0   3   37140.   38763.    1102. o
  19   0   3    4073.    3799.     986. o
  20   0   3      64.     452.    1032. <
  21   0   3    3041.    2884.    1074. <
  22   0   3   12709.   12291.    1030. o
  23   0   3    1233.     952.    1033. <
  24   0   3   40358.   44190.    1247. o
  25   0   3     240.     121.    1089. <
  26   0   3    1596.     718.    1114. <
  27   0   3   13838.   14470.    1136. o
  28   0   3    4901.    5536.    1220. o
   0   1   3  182831.  176445.    2187. o
   1   1   3  103968.  102254.     936. o
   2   1   3   29857.   30241.     684. o
   3   1   3   30952.   30776.     776. o
   4   1   3   46666.   47811.     821. o
   5   1   3  179062.  180299.     966. o
   6   1   3  216710.  215733.    1142. o
   7   1   3    7713.    8027.     626. o
   8   1   3    7866.    7066.     552. o
   9   1   3   50917.   50120.     916. o
  10   1   3   55766.   54634.     699. o
  11   1   3     879.     985.     638. <
  12   1   3   52440.   50144.     794. o
  13   1   3   14259.   14266.     586. o
  14   1   3     180.     105.     629. <
  15   1   3    4959.    5137.     623. o
  16   1   3    3453.    3419.     509. o
  17   1   3   51726.   50636.     879. o
  18   1   3    1024.     613.     525. <
  19   1   3   44204.   45220.     824. o
  20   1   3     771.    1154.     549. <
  21   1   3    2693.    2487.     541. o
  22   1   3    2073.    2212.     565. o
  23   1   3   26274.   26504.     636. o
  24   1   3   35055.   36808.     720. o
  25   1   3   12545.   13564.     689. o
  26   1   3   18783.   19579.     715. o
  27   1   3   22554.   21201.     968. o
  28   1   3   35293.   35460.     793. o
   1   2   3   74467.   77825.     548. o
   2   2   3  115239.  115058.     609. o
   3   2   3     417.     347.     428. <
   4   2   3   17734.   19078.     491. o
   5   2   3    9681.    9696.     447. o
   6   2   3     691.     815.     516. <
   7   2   3   21245.   22553.     442. o
   8   2   3     667.     726.     468. <
   9   2   3   42808.   42242.     498. o
  10   2   3   13880.   14912.     464. o
  11   2   3   22385.   22764.     450. o
  12   2   3   21715.   21500.     580. o
  13   2   3   35602.   34534.     535. o
  14   2   3    1465.    1493.     557. <
  15   2   3  121964.  118661.     609. o
  16   2   3  242336.  232729.    1074. o
  17   2   3   44604.   42718.     561. o
  18   2   3   30178.   30700.     761. o
  19   2   3    3366.    3272.     638. o
  20   2   3      89.     387.     557. <
  21   2   3    2753.    2503.     565. o
  22   2   3   10922.   11110.     754. o
  23   2   3    1054.    1436.     629. <
  24   2   3   33849.   35505.     736. o
  25   2   3     218.     702.     629. <
  26   2   3    1291.    1582.     678. <
   0   3   3   98956.   98679.     616. o
   1   3   3   54876.   54509.     425. o
   2   3   3   15384.   14869.     415. o
   3   3   3   16680.   15702.     473. o
   4   3   3   25224.   24280.     442. o
   5   3   3  100673.  100257.     683. o
   6   3   3  125265.  123220.     640. o
   7   3   3    4792.    4918.     364. o
   8   3   3    4209.    4665.     453. o
   9   3   3   30210.   30697.     525. o
  10   3   3   31390.   30949.     500. o
  11   3   3    1060.    1194.     476. <
  12   3   3   34960.   35163.     525. o
  13   3   3    8773.    8028.     591. o
  14   3   3     201.     670.     452. <
  15   3   3    3254.    3134.     460. o
  16   3   3    2445.    2754.     468. o
  17   3   3   33016.   32588.     540. o
  18   3   3     818.     613.     484. <
  19   3   3   29216.   28695.     563. o
  20   3   3     708.     944.     549. <
  21   3   3    1489.    1493.     508. <
  22   3   3    1675.    1881.     557. o
  23   3   3   18233.   18240.     561. o
  24   3   3   24281.   24186.     603. o
   1   4   3   36035.   35371.     402. o
   2   4   3   53985.   52127.     405. o
   3   4   3     182.     500.     371. <
   4   4   3    9989.   10933.     413. o
   5   4   3    6323.    6626.     421. o
   6   4   3     877.     613.     355. <
   7   4   3    9994.   10583.     389. o
   8   4   3     322.     524.     363. <
   9   4   3   21795.   21309.     456. o
  10   4   3    8788.    9086.     494. o
  11   4   3   11411.   11147.     527. o
  12   4   3   10976.   10698.     478. o
  13   4   3   18644.   18553.     480. o
  14   4   3     756.     871.     468. <
  15   4   3   65706.   65824.     630. o
  16   4   3  132313.  132194.     841. o
  17   4   3   24676.   24530.     603. o
  18   4   3   17613.   17936.     544. o
  19   4   3    2011.    1380.     557. <
  20   4   3     123.     177.     702. <
   0   5   3   42678.   41631.     599. o
   1   5   3   22488.   21647.     480. o
   2   5   3    5994.    6525.     396. o
   3   5   3    6996.    7418.     396. o
   4   5   3   10983.   10768.     381. o
   5   5   3   45710.   45461.     444. o
   6   5   3   58748.   55469.     578. o
   7   5   3    2473.    2761.     460. o
   8   5   3    1697.    1808.     468. o
   9   5   3   14095.   15283.     487. o
  10   5   3   13266.   14337.     495. o
  11   5   3    1051.     920.     549. <
  12   5   3   18663.   18657.     528. o
  13   5   3    4169.    4791.     703. o
   0   0   4  677168.  575261.    2937. o
   1   0   4    1612.    1244.     751. <
   2   0   4     711.     928.     751. <
   3   0   4   16951.   17921.     902. o
   4   0   4   10945.   11686.     896. o
   5   0   4    6636.    7498.     860. o
   6   0   4    9724.   10315.     870. o
   7   0   4   12438.   14304.    1337. o
   8   0   4   86184.   90717.    1266. o
   9   0   4    4032.    3422.    1019. o
  10   0   4    8453.    8603.    1112. o
  11   0   4   37786.   37368.    1101. o
  12   0   4   11222.   12335.     796. o
  13   0   4   30842.   31128.     888. o
  14   0   4   37272.   37838.     948. o
  15   0   4   10723.   11370.     779. o
  16   0   4    4114.    4834.    1043. o
  17   0   4   20152.   20908.    1051. o
  18   0   4   19301.   22128.    1108. o
  19   0   4   12368.   14354.    1071. o
  20   0   4    7041.    8117.    1084. o
  21   0   4    7115.    8391.     971. o
  22   0   4       7.    -807.     968. <
  23   0   4      65.    1468.     984. <
  24   0   4   15018.   17256.    1031. o
  25   0   4   55562.   58128.    1212. o
  26   0   4    2423.    2890.    1017. <
  27   0   4    8860.   10175.    1060. o
   1   1   4     580.     605.     508. <
   2   1   4   17436.   17842.     590. o
   3   1   4    3329.    3470.     574. o
   4   1   4   39991.   39679.     651. o
   5   1   4     441.     629.     629. <
   6   1   4   21300.   21348.     542. o
   7   1   4     406.     533.     533. <
   8   1   4    8455.    8710.     544. o
   9   1   4   20274.   19959.     548. o
  10   1   4  146087.  136128.     876. o
  11   1   4     512.     484.     508. <
  12   1   4   30729.   29671.     543. o
  13   1   4   15782.   15683.     635. o
  14   1   4    8366.    8607.     519. o
  15   1   4   41973.   40820.     594. o
  16   1   4   30118.   30056.     631. o
  17   1   4   25694.   25420.     637. o
  18   1   4    8966.    9252.     608. o
  19   1   4    1524.    1631.     638. <
  20   1   4   46639.   45021.     799. o
  21   1   4   42525.   43370.     879. o
  22   1   4   38155.   39244.     803. o
  23   1   4   43011.   43051.     723. o
  24   1   4    1233.    1194.     670. <
  25   1   4     330.     436.     670. <
  26   1   4     268.     573.     718. <
  27   1   4   23800.   26070.     953. o
   0   2   4  487062.  474569.    1552. o
   1   2   4    1205.    1558.     557. <
   2   2   4     660.     896.     500. <
   3   2   4   12544.   13322.     472. o
   4   2   4    8026.    8274.     454. o
   5   2   4    4972.    5309.     413. o
   6   2   4    7981.    8223.     519. o
   7   2   4    9178.    9510.     406. o
   8   2   4   63954.   64037.     579. o
   9   2   4    3352.    3629.     445. o
  10   2   4    7126.    6577.     510. o
  11   2   4   28834.   28246.     541. o
  12   2   4    9098.    8512.     413. o
  13   2   4   24569.   22400.     564. o
  14   2   4   29362.   29281.     590. o
  15   2   4    8658.    7558.     478. o
  16   2   4    3258.    2957.     525. o
  17   2   4   16087.   16230.     553. o
  18   2   4   15918.   15607.     487. o
  19   2   4   10680.   10536.     624. o
  20   2   4    5785.    5531.     534. o
  21   2   4    6039.    5976.     566. o
  22   2   4      19.    -226.     589. <
  23   2   4      61.    -629.     629. <
  24   2   4   12655.   12071.     673. o
  25   2   4   46914.   47303.     805. o
   1   3   4     218.     105.     436. <
   2   3   4    9565.    9837.     430. o
   3   3   4    2090.    2746.     428. o
   4   3   4   24607.   25026.     401. o
   5   3   4     347.     581.     411. <
   6   3   4   11583.   12094.     398. o
   7   3   4     258.     460.     395. <
   8   3   4    4846.    5232.     404. o
   9   3   4   12928.   13161.     520. o
  10   3   4   91005.   90886.     573. o
  11   3   4     426.     444.     371. <
  12   3   4   20395.   19636.     505. o
  13   3   4    9774.    9035.     421. o
  14   3   4    5684.    6130.     477. o
  15   3   4   27938.   26647.     506. o
  16   3   4   19832.   20071.     464. o
  17   3   4   17212.   16990.     447. o
  18   3   4    6019.    5838.     558. o
  19   3   4    1208.     904.     516. <
  20   3   4   32592.   32552.     564. o
  21   3   4   30158.   29054.     563. o
  22   3   4   27486.   25979.     669. o
   0   4   4  233438.  227565.    1023. o
   1   4   4     666.     726.     411. <
   2   4   4     644.     686.     355. <
   3   4   4    6404.    6682.     413. o
   4   4   4    3735.    4387.     372. o
   5   4   4    2581.    2568.     388. o
   6   4   4    5206.    5716.     372. o
   7   4   4    4478.    4720.     445. o
   8   4   4   31636.   32459.     507. o
   9   4   4    2236.    2422.     468. o
  10   4   4    4869.    4421.     420. o
  11   4   4   14847.   14740.     568. o
  12   4   4    5424.    5594.     590. o
  13   4   4   13967.   13638.     641. o
  14   4   4   16111.   16150.     528. o
  15   4   4    5048.    4906.     517. o
  16   4   4    1788.    2066.     581. o
  17   4   4    8931.    9034.     559. o
  18   4   4    9550.    9716.     640. o
   1   5   4      29.    -476.     516. <
   2   5   4    4091.    4120.     493. o
   3   5   4    1086.    1695.     420. o
   4   5   4   12282.   13010.     438. o
   5   5   4     248.     411.     411. <
   6   5   4    4651.    5180.     412. o
   7   5   4     139.       8.     411. <
   8   5   4    2097.    1736.     492. o
   9   5   4    6445.    6809.     558. o
  10   5   4   43748.   44807.     681. o
  11   5   4     298.   -1258.    3114. <
   1   0   5   36670.   37424.     772. o
   2   0   5   94553.   91925.     986. o
   3   0   5      35.     186.     815. <
   4   0   5   53462.   54834.    1174. o
   5   0   5    7497.    7332.     779. o
   6   0   5   12343.   13117.     846. o
   7   0   5  281386.  272975.    1852. o
   8   0   5  200740.  204305.    1585. o
   9   0   5   17346.   17814.     946. o
  10   0   5   63043.   64272.    1165. o
  11   0   5    8265.    8033.     908. o
  12   0   5    6510.    6299.     769. o
  13   0   5   30873.   30735.     960. o
  14   0   5    4132.    4818.     703. o
  15   0   5    9825.    9615.     713. o
  16   0   5    1034.    1211.     678. <
  17   0   5     562.     331.    1186. <
  18   0   5    8044.   10007.     842. o
  19   0   5   37008.   39988.    1099. o
  20   0   5    4181.    3071.     962. o
  21   0   5    2922.    2915.     937. o
  22   0   5   26569.   28040.    1060. o
  23   0   5   14646.   16278.    1014. o
  24   0   5   47084.   49083.    1019. o
  25   0   5   51726.   53134.    1177. o
  26   0   5    9017.    9260.     955. o
   0   1   5   97932.   93083.    1045. o
   1   1   5   19850.   19754.     589. o
   2   1   5   21320.   21272.     549. o
   3   1   5  120122.  116616.     804. o
   4   1   5   40453.   39949.     705. o
   5   1   5   34874.   33047.     611. o
   6   1   5   35656.   33112.     661. o
   7   1   5    2139.    1995.     468. o
   8   1   5  103024.   98209.     661. o
   9   1   5  125346.  119730.     737. o
  10   1   5    1631.    1405.     484. <
  11   1   5    2126.    2076.     476. o
  12   1   5   21410.   20667.     498. o
  13   1   5   74085.   71743.     612. o
  14   1   5   89230.   87757.     869. o
  15   1   5   30526.   30277.     516. o
  16   1   5    6883.    7057.     502. o
  17   1   5   12007.   12549.     560. o
  18   1   5   81907.   78725.     845. o
  19   1   5   39460.   38844.     796. o
  20   1   5    4990.    5270.     647. o
  21   1   5    2299.    2212.     694. o
  22   1   5       8.    -710.     645. <
  23   1   5   19194.   19632.     732. o
  24   1   5    4928.    5197.     695. o
  25   1   5    1660.    2042.     743. <
   1   2   5   27905.   28917.     501. o
   2   2   5   71575.   71818.     631. o
   3   2   5      48.     298.     516. <
   4   2   5   42154.   41651.     546. o
   5   2   5    5169.    4976.     477. o
   6   2   5    9724.   10489.     454. o
   7   2   5  216708.  207557.     605. o
   8   2   5  155031.  151457.     551. o
   9   2   5   13475.   13098.     423. o
  10   2   5   50218.   46371.     489. o
  11   2   5    6551.    6442.     429. o
  12   2   5    5260.    5265.     445. o
  13   2   5   25915.   25339.     523. o
  14   2   5    3886.    4307.     436. o
  15   2   5    8429.    8729.     429. o
  16   2   5     933.    1138.     508. <
  17   2   5     597.     516.     476. <
  18   2   5    6905.    6812.     518. o
  19   2   5   31185.   29478.     613. o
  20   2   5    3612.    3789.     509. o
  21   2   5    2329.    2358.     549. o
  22   2   5   22112.   22461.     765. o
  23   2   5   12169.   12061.     624. o
  24   2   5   39290.   38168.     704. o
   0   3   5   61064.   61765.     798. o
   1   3   5   10694.   11557.     462. o
   2   3   5   14527.   13920.     431. o
   3   3   5   78394.   78575.     578. o
   4   3   5   26525.   27089.     458. o
   5   3   5   21425.   22240.     505. o
   6   3   5   22921.   22800.     440. o
   7   3   5    1413.    1211.     420. <
   8   3   5   63301.   63997.     615. o
   9   3   5   77448.   76816.     543. o
  10   3   5    1141.    1299.     468. <
  11   3   5    1538.    1848.     444. o
  12   3   5   14788.   14575.     479. o
  13   3   5   46325.   46548.     502. o
  14   3   5   59231.   55244.     678. o
  15   3   5   21465.   20781.     554. o
  16   3   5    4489.    3774.     477. o
  17   3   5    8570.    8637.     656. o
  18   3   5   55819.   55477.     602. o
  19   3   5   26515.   26372.     554. o
  20   3   5    3691.    3409.     485. o
  21   3   5    1747.    1421.     565. <
   1   4   5   14533.   14660.     463. o
   2   4   5   36776.   37321.     484. o
   3   4   5      86.     145.     468. <
   4   4   5   24216.   25373.     513. o
   5   4   5    1982.    2729.     436. o
   6   4   5    5535.    5902.     412. o
   7   4   5  114956.  119761.     718. o
   8   4   5   82286.   82472.     526. o
   9   4   5    7236.    7921.     413. o
  10   4   5   28486.   28458.     522. o
  11   4   5    3663.    3668.     557. o
  12   4   5    3045.    3594.     549. o
  13   4   5   16351.   15995.     512. o
  14   4   5    3073.    2528.     557. o
  15   4   5    5565.    5651.     582. o
  16   4   5     662.     742.     557. <
   0   5   5   29734.   31119.     824. o
   1   5   5    4104.    3248.     557. o
   2   5   5    7978.    8084.     566. o
   3   5   5   40633.   41609.     729. o
   4   5   5   13817.   15134.     657. o
   5   5   5   10189.   10204.     470. o
   6   5   5   11425.   11830.     478. o
   0   0   6    4739.    5930.    1011. o
   1   0   6  141253.  135143.     974. o
   2   0   6   18641.   18478.     702. o
   3   0   6      17.    -452.     766. <
   4   0   6    7393.    8622.     843. o
   5   0   6    1228.    1622.     848. <
   6   0   6     707.    1888.     791. <
   7   0   6   40038.   39912.    1197. o
   8   0   6   19533.   22585.     922. o
   9   0   6    7918.    8442.     697. o
  10   0   6     691.     662.     791. <
  11   0   6   10701.   10951.     884. o
  12   0   6    3574.    3354.     752. o
  13   0   6     793.     371.     734. <
  14   0   6    1986.    2503.     702. o
  15   0   6    7166.    7770.     696. o
  16   0   6   46860.   46920.     807. o
  17   0   6   12406.   12848.     714. o
  18   0   6   11741.   11796.     730. o
  19   0   6   11865.   12914.     867. o
  20   0   6    6606.    6568.    1027. o
  21   0   6    4219.    4145.     873. o
  22   0   6   48093.   48528.     995. o
  23   0   6   10014.   10625.     964. o
  24   0   6    5011.    4146.    1051. o
   1   1   6   10370.   11080.     601. o
   2   1   6      37.     871.     492. <
   3   1   6   64382.   62519.     687. o
   4   1   6     210.    -387.     532. <
   5   1   6    3651.    4381.     533. o
   6   1   6   20573.   19171.     571. o
   7   1   6    4640.    6082.     558. o
   8   1   6    8319.    8435.     527. o
   9   1   6     784.    1049.     541. <
  10   1   6     186.     621.     492. <
  11   1   6  133692.  128664.     706. o
  12   1   6   42164.   41908.     511. o
  13   1   6    6731.    7235.     566. o
  14   1   6      39.    -202.     484. <
  15   1   6    6577.    6909.     510. o
  16   1   6    1093.    1065.     500. <
  17   1   6   22340.   22204.     586. o
  18   1   6   54194.   52670.     660. o
  19   1   6    7584.    8561.     615. o
  20   1   6     536.     202.     621. <
  21   1   6   26904.   27546.     783. o
  22   1   6   13576.   13795.     770. o
  23   1   6    7870.    7970.     728. o
   0   2   6    3934.    4478.     598. o
   1   2   6  110738.  108653.     640. o
   2   2   6   14626.   14186.     512. o
   3   2   6      15.    -218.     452. <
   4   2   6    5526.    5598.     485. o
   5   2   6    1095.    1727.     476. o
   6   2   6     627.     250.     412. <
   7   2   6   32177.   31997.     500. o
   8   2   6   15923.   15171.     463. o
   9   2   6    6539.    7064.     494. o
  10   2   6     590.     670.     403. <
  11   2   6    9044.    8425.     437. o
  12   2   6    2979.    2641.     404. o
  13   2   6     597.    1041.     460. <
  14   2   6    1754.    1485.     396. o
  15   2   6    6030.    6300.     437. o
  16   2   6   38351.   38203.     516. o
  17   2   6   10220.   10863.     462. o
  18   2   6    9831.   10391.     478. o
  19   2   6    9963.   10577.     599. o
  20   2   6    5521.    5804.     631. o
  21   2   6    3701.    2884.     598. o
  22   2   6   40793.   40863.     811. o
   1   3   6    6058.    6649.     445. o
   2   3   6      39.     540.     468. <
   3   3   6   40099.   41188.     542. o
   4   3   6      98.    1057.     484. <
   5   3   6    1623.    1897.     444. o
   6   3   6   13156.   14241.     479. o
   7   3   6    3208.    3118.     493. o
   8   3   6    5138.    5198.     525. o
   9   3   6     666.    1065.     460. <
  10   3   6      61.    -145.     436. <
  11   3   6   89277.   85678.     494. o
  12   3   6   29104.   27183.     523. o
  13   3   6    4780.    5156.     436. o
  14   3   6      52.     121.     403. <
  15   3   6    4422.    5034.     453. o
  16   3   6     628.     750.     444. <
  17   3   6   15626.   14537.     479. o
  18   3   6   38120.   36755.     630. o
  19   3   6    5480.    5262.     525. o
   0   4   6    2511.    3399.     775. o
   1   4   6   60692.   62310.     537. o
   2   4   6    7983.    9315.     558. o
   3   4   6      11.     307.     508. <
   4   4   6    2639.    2099.     581. o
   5   4   6     792.     371.     597. <
   6   4   6     463.     686.     516. <
   7   4   6   18525.   18717.     504. o
   8   4   6    9394.   10623.     534. o
   9   4   6    3978.    4912.     590. o
  10   4   6     384.     516.     557. <
  11   4   6    5767.    5700.     453. o
  12   4   6    1865.    1865.     533. o
  13   4   6     290.     952.     549. <
   1   0   7   57355.   57907.     732. o
   2   0   7   74592.   79340.    1191. o
   3   0   7       2.    -500.     790. <
   4   0   7   12966.   13011.     804. o
   5   0   7   15336.   17603.    1000. o
   6   0   7      11.     863.     879. <
   7   0   7   21324.   22039.    1003. o
   8   0   7   12122.   11937.    1055. o
   9   0   7    1834.    2583.     872. <
  10   0   7   10020.   10464.     892. o
  11   0   7   22613.   22736.     962. o
  12   0   7    1465.     678.     726. <
  13   0   7   50446.   52574.     817. o
  14   0   7   19866.   19936.     749. o
  15   0   7   14941.   16075.     706. o
  16   0   7  160202.  163182.    1204. o
  17   0   7   46790.   47929.     921. o
  18   0   7       0.      97.     669. <
  19   0   7    6729.    9398.    1027. o
  20   0   7   22983.   23901.     969. o
  21   0   7     160.    -161.     920. <
  22   0   7    4029.    5566.    1074. o
   0   1   7   47897.   46006.     909. o
   1   1   7   28513.   30428.     589. o
   2   1   7   16876.   16949.     496. o
   3   1   7   40340.   39777.     535. o
   4   1   7   58228.   57953.     581. o
   5   1   7   48220.   45559.     611. o
   6   1   7   83814.   78780.     798. o
   7   1   7   13847.   12596.     609. o
   8   1   7   23727.   23221.     612. o
   9   1   7   38180.   37385.     567. o
  10   1   7     614.    1573.     533. <
  11   1   7     179.      56.     540. <
  12   1   7   21063.   22279.     546. o
  13   1   7   17606.   18706.     569. o
  14   1   7    3235.    4087.     501. o
  15   1   7   23080.   21847.     692. o
  16   1   7   12315.   12770.     535. o
  17   1   7    8822.    9172.     542. o
  18   1   7    1076.    1670.     508. o
  19   1   7    3514.    3893.     541. o
  20   1   7    6036.    6582.     679. o
  21   1   7    2972.    3400.     703. o
   1   2   7   46702.   45980.     519. o
   2   2   7   59135.   56315.     589. o
   3   2   7       2.    -323.     492. <
   4   2   7   10836.    9486.     616. o
   5   2   7   13237.   12816.     487. o
   6   2   7      32.     -73.     444. <
   7   2   7   17390.   16603.     504. o
   8   2   7   10067.    9416.     462. o
   9   2   7    1526.    1396.     444. o
  10   2   7    8712.    9190.     502. o
  11   2   7   18777.   17354.     520. o
  12   2   7    1087.     863.     468. <
  13   2   7   41486.   41177.     460. o
  14   2   7   16587.   16602.     495. o
  15   2   7   12290.   12566.     454. o
  16   2   7  133048.  134027.     586. o
  17   2   7   39179.   38827.     508. o
  18   2   7       1.     339.     468. <
  19   2   7    5813.    5999.     509. o
   0   3   7   31904.   31312.     752. o
   1   3   7   18583.   18962.     463. o
   2   3   7   10777.   10486.     454. o
   3   3   7   27170.   26440.     473. o
   4   3   7   38954.   38306.     517. o
   5   3   7   32691.   32158.     613. o
   6   3   7   57684.   57374.     496. o
   7   3   7    9564.    9710.     470. o
   8   3   7   15195.   14847.     511. o
   9   3   7   26904.   24795.     563. o
  10   3   7     315.     234.     508. <
  11   3   7     213.    -436.     492. <
  12   3   7   15088.   14300.     487. o
  13   3   7   12462.   12979.     495. o
  14   3   7    2057.    1413.     460. o
  15   3   7   16307.   15709.     593. o
  16   3   7    8678.    9008.     534. o
   1   4   7   27413.   27930.     693. o
   2   4   7   32509.   32104.     629. o
   3   4   7       3.     113.     557. <
   4   4   7    6709.    7263.     526. o
   5   4   7    8806.    8815.     469. o
   6   4   7      86.     581.     452. <
   7   4   7   10178.   10974.     551. o
   8   4   7    6178.    6266.     534. o
   9   4   7     928.     734.     557. <
   0   0   8     503.    2509.    1081. <
   1   0   8    5433.    5046.     890. o
   2   0   8   10331.   10756.    1037. o
   3   0   8     255.    1121.     855. <
   4   0   8   25202.   26098.     922. o
   5   0   8   11310.   13736.    1143. o
   6   0   8   51042.   58114.    1378. o
   7   0   8    1566.     307.     912. <
   8   0   8  151696.  149144.    1333. o
   9   0   8     945.    1977.     791. <
  10   0   8   48887.   50941.    1145. o
  11   0   8   54953.   58189.     941. o
  12   0   8    5771.    6582.     784. o
  13   0   8    3572.    4071.     767. o
  14   0   8    4810.    5100.     735. o
  15   0   8       3.     129.     742. <
  16   0   8    2644.    3496.     751. o
  17   0   8    8552.    9065.     704. o
  18   0   8    6686.    6939.     687. o
  19   0   8    1450.    1776.     742. <
   1   1   8    5112.    4148.     631. o
   2   1   8  123650.  114441.     843. o
   3   1   8    8553.    9385.     551. o
   4   1   8    3498.    4007.     590. o
   5   1   8   14069.   14555.     544. o
   6   1   8    4049.    4776.     525. o
   7   1   8      45.     113.     565. <
   8   1   8   36359.   35131.     664. o
   9   1   8   11334.   12888.     673. o
  10   1   8     626.     879.     516. <
  11   1   8    7268.    7355.     631. o
  12   1   8   27589.   28077.     563. o
  13   1   8    2437.    2422.     549. o
  14   1   8   19774.   20573.     618. o
  15   1   8   11691.   12376.     584. o
  16   1   8   29564.   29799.     620. o
  17   1   8    2710.    3060.     541. o
  18   1   8    4652.    4986.     558. o
   0   2   8     404.    -177.     702. <
   1   2   8    4754.    5189.     485. o
   2   2   8    9326.    8480.     502. o
   3   2   8     217.       8.     508. <
   4   2   8   20823.   20754.     505. o
   5   2   8    9429.    9071.     510. o
   6   2   8   41941.   39818.     714. o
   7   2   8    1327.    1824.     508. o
   8   2   8  124663.  121247.     661. o
   9   2   8     815.    1307.     500. <
  10   2   8   40813.   40664.     558. o
  11   2   8   45124.   45394.     509. o
  12   2   8    5109.    5319.     453. o
  13   2   8    3031.    3699.     525. o
  14   2   8    4055.    3967.     517. o
  15   2   8       2.     669.     613. <
  16   2   8    2265.    2010.     492. o
   1   3   8    3349.    3538.     485. o
   2   3   8   85074.   85779.     642. o
   3   3   8    5874.    4164.     574. o
   4   3   8    2761.    2657.     468. o
   5   3   8    9263.    9327.     445. o
   6   3   8    2595.    2180.     533. o
   7   3   8      48.    -476.     500. <
   8   3   8   25475.   25586.     562. o
   9   3   8    8133.    8562.     510. o
  10   3   8     482.     855.     621. <
  11   3   8    5147.    4057.     679. o
  12   3   8   20023.   19016.     732. o
   1   0   9      46.      40.     734. <
   2   0   9    2984.    3546.     775. o
   3   0   9    8660.    8484.    1012. o
   4   0   9    4885.    5076.    1148. o
   5   0   9   15715.   17814.     974. o
   6   0   9     289.    -573.     944. <
   7   0   9   53038.   56509.    1278. o
   8   0   9   23377.   24457.     953. o
   9   0   9      90.     653.     968. <
  10   0   9    3885.    4330.     961. o
  11   0   9    3490.    2827.     856. o
  12   0   9     137.    1145.    1081. <
  13   0   9   13030.   15422.    1054. o
  14   0   9    2211.    3318.     799. o
  15   0   9    1759.    1663.     807. <
   0   1   9    3889.    4137.     953. o
   1   1   9     325.    -137.     597. <
   2   1   9      21.     661.     605. <
   3   1   9   36950.   36548.     713. o
   4   1   9    6070.    5661.     623. o
   5   1   9   28587.   29432.     620. o
   6   1   9    5984.    7439.     558. o
   7   1   9    7011.    7766.     534. o
   8   1   9    2033.    1687.     605. <
   9   1   9    5410.    5327.     647. o
  10   1   9      41.    -371.     669. <
  11   1   9    3498.    2924.     614. o
  12   1   9    2434.    2519.     614. o
  13   1   9   66068.   67870.     679. o
  14   1   9    4746.    4566.     574. o
   1   2   9      38.     589.     516. <
   2   2   9    2498.    2568.     549. o
   3   2   9    7198.    7976.     534. o
   4   2   9    4165.    4371.     582. o
   5   2   9   13090.   14150.     568. o
   6   2   9     225.     726.     605. <
   7   2   9   44404.   44954.     607. o
   8   2   9   19536.   20103.     585. o
   9   2   9      65.    1057.     549. <
  10   2   9    3345.    3998.     582. o
  11   2   9    3038.    3133.     581. o
   0   3   9    2977.    2972.     735. o
   1   3   9     303.     315.     516. <
   2   3   9      24.      32.     597. <
   0   0  10    2317.     347.    1372. <
   1   0  10   84338.   88774.    1684. o
   2   0  10   24655.   24991.     977. o
   3   0  10   18503.   19835.     853. o
   4   0  10   16934.   17435.    1121. o
   5   0  10   17545.   19965.     918. o
   6   0  10    3286.    3449.    1155. <
   7   0  10   11547.   11847.    1353. o
   8   0  10    7976.    6522.    1206. o
   9   0  10   14018.   16554.    1322. o
   1   1  10   48476.   49779.     904. o
   2   1  10    5545.    6208.     655. o
   3   1  10   14052.   15119.     641. o
   4   1  10    5828.    6775.     687. o
   5   1  10    5484.    5545.     695. o
   6   1  10    1319.     952.     710. <
   7   1  10   47470.   48674.     846. o
   8   1  10     727.    1735.    1025. <

loop_
 _twin_refln_datum_id
 _twin_refln_individual_id
 _twin_refln_index_h
 _twin_refln_index_k
 _twin_refln_index_l
 _twin_refln_F_squared_calc
 _twin_refln_F_squared_meas
 _twin_refln_F_squared_sigma
 _twin_refln_include_status
 ? ? ? ? ? ? ? ? ?

