
#=======================================================================
data_global
#=======================================================================

_audit_creation_method                   'Jana2006 Version : 27/01/2020'


# 1. PROCESSING SUMMARY (IUCr Office Use Only)

_journal_date_recd_electronic            ?
_journal_date_to_coeditor                ?
_journal_date_from_coeditor              ?
_journal_date_accepted                   ?
_journal_date_printers_first             ?
_journal_date_printers_final             ?
_journal_date_proofs_out                 ?
_journal_date_proofs_in                  ?
_journal_coeditor_name                   ?
_journal_coeditor_code                   ?
_journal_coeditor_notes
; ?
;
_journal_techeditor_code                 ?
_journal_paper_category                  ?
_journal_techeditor_notes
; ?
;
_journal_coden_ASTM                      ?
_journal_name_full                       'Acta Crystallographica Section C'
_journal_year                            ?
_journal_volume                          ?
_journal_issue                           ?
_journal_page_first                      ?
_journal_page_last                       ?
_journal_suppl_publ_number               ?
_journal_suppl_publ_pages                ?

#=======================================================================

# 2. SUBMISSION DETAILS

_publ_contact_author_name                ?
_publ_contact_author_address
; ?
;
_publ_contact_author_email               ?
_publ_contact_author_fax                 ?
_publ_contact_author_phone               ?

_publ_requested_journal                  'Acta Crystallographica Section C'
_publ_requested_category                 ?

_publ_contact_letter
; ?
;

#=======================================================================

# 3. TITLE AND AUTHOR LIST

_publ_section_title
; ?
;
_publ_section_title_footnote
; ?
;
loop_
 _publ_author_name
 _publ_author_footnote
 _publ_author_address
; ?      # name
;
; ?      # footnote
;
; ?      # address
;

#=======================================================================

# 4. TEXT

_publ_section_synopsis
; ?
;
_publ_section_abstract
; ?
;
_publ_section_comment
; ?
;
_publ_section_introduction
; ?
;
_publ_section_experimental
; ?
;
_publ_section_exptl_prep
; ?
;
_publ_section_exptl_refinement
; ?
;
_publ_section_exptl_solution
; ?
;
_publ_section_discussion
; ?
;
_publ_section_acknowledgements
; ?
;
_publ_section_references
;
;
_publ_section_figure_captions
; ?
;
_publ_section_table_legends
; ?
;

#=======================================================================
data_I
#=======================================================================

# 5. CHEMICAL DATA

_chemical_name_systematic
; ?
;
_chemical_name_common                    ?
_chemical_formula_moiety                 ?
_chemical_formula_structural             ?
_chemical_formula_analytical             ?
_chemical_formula_iupac                  ?
_chemical_formula_sum                    'Pd1 Sn1 Sr1'
_chemical_formula_weight                 312.7
_chemical_melting_point                  ?
_chemical_compound_source                ?
_chemical_absolute_configuration         .

#=======================================================================

# 6. CRYSTAL DATA

_symmetry_cell_setting                   orthorhombic
_symmetry_space_group_name_H-M           'P n m a'
_symmetry_space_group_name_Hall          '-P -2xabc;-2yb;-2zac'
_symmetry_Int_Tables_number              62

loop_
 _space_group_symop_id
 _space_group_symop_operation_xyz
 1   x,y,z
 2   -x+1/2,-y,z+1/2
 3   -x,y+1/2,-z
 4   x+1/2,-y+1/2,-z+1/2
 5   -x,-y,-z
 6   x+1/2,y,-z+1/2
 7   x,-y+1/2,z
 8   -x+1/2,y+1/2,z+1/2

_cell_length_a                           7.5949(11)
_cell_length_b                           4.7032(14)
_cell_length_c                           8.1991(16)
_cell_angle_alpha                        90
_cell_angle_beta                         90
_cell_angle_gamma                        90
_cell_volume                             292.87(11)

loop_
 _twin_individual_id
 _twin_individual_mass_fraction_refined
 _twin_individual_twin_matrix_11
 _twin_individual_twin_matrix_12
 _twin_individual_twin_matrix_13
 _twin_individual_twin_matrix_21
 _twin_individual_twin_matrix_22
 _twin_individual_twin_matrix_23
 _twin_individual_twin_matrix_31
 _twin_individual_twin_matrix_32
 _twin_individual_twin_matrix_33
 ? ? ? ? ? ? ? ? ? ? ?

_cell_formula_units_Z                    4

_cell_measurement_reflns_used            ?
_cell_measurement_theta_min              ?
_cell_measurement_theta_max              ?
_cell_measurement_temperature            293
_cell_special_details
; ?
;

_exptl_crystal_density_diffrn            7.0925
_exptl_crystal_density_meas              ?
_exptl_crystal_density_method            ?
_exptl_crystal_F_000                     536

_exptl_absorpt_coefficient_mu            32.328
_exptl_crystal_description               ?
_exptl_crystal_size_max                  ?
_exptl_crystal_size_mid                  ?
_exptl_crystal_size_min                  ?
_exptl_crystal_size_rad                  ?
_exptl_crystal_colour                    ?
_exptl_absorpt_correction_type           ?
_exptl_absorpt_process_details           ?
_exptl_absorpt_correction_T_min          ?
_exptl_absorpt_correction_T_max          ?
loop_
 _exptl_crystal_face_index_h
 _exptl_crystal_face_index_k
 _exptl_crystal_face_index_l
 _exptl_crystal_face_perp_dist
 ? ? ? ?

#=======================================================================

# 7. EXPERIMENTAL DATA

_exptl_special_details                   ?

_diffrn_ambient_temperature              293
_diffrn_source                           ?
_diffrn_source_power                     ?
_diffrn_source_voltage                   ?
_diffrn_source_current                   ?
_diffrn_radiation_type                   'Mo K\a'
_diffrn_radiation_source                 'X-ray tube'
_diffrn_radiation_wavelength             0.71073
_diffrn_radiation_monochromator          graphite
_diffrn_measurement_device               'four-circle diffractometer'
_diffrn_measurement_device_type          'IPDS Stoe'
_diffrn_detector                         ?
_diffrn_detector_area_resol_mean         ?
_diffrn_measurement_method               '??integration method??'
_diffrn_measurement_specimen_support     ?

_diffrn_reflns_number                    3494
_diffrn_reflns_theta_min                 3.66
_diffrn_reflns_theta_max                 33.5
_diffrn_reflns_theta_full                33.5
_diffrn_measured_fraction_theta_max      1
_diffrn_measured_fraction_theta_full     1
_diffrn_reflns_av_R_equivalents          0.0697
_diffrn_reflns_av_unetI/netI             0.0343
_diffrn_reflns_limit_h_min               -11
_diffrn_reflns_limit_h_max               11
_diffrn_reflns_limit_k_min               -7
_diffrn_reflns_limit_k_max               6
_diffrn_reflns_limit_l_min               -12
_diffrn_reflns_limit_l_max               12
_diffrn_reflns_reduction_process         ?

_diffrn_standards_number                 ?
_diffrn_standards_interval_count         ?
_diffrn_standards_interval_time          ?
_diffrn_standards_decay_%                ?
loop_
_diffrn_standard_refln_index_h
_diffrn_standard_refln_index_k
_diffrn_standard_refln_index_l
  ? ? ?

_diffrn_radiation_probe                  X-ray

#=======================================================================

# 8. REFINEMENT DATA

_refine_special_details
; ?
;

_reflns_number_total                     631
_reflns_number_gt                        433
_reflns_threshold_expression             'I>3\s(I)'

_refine_ls_structure_factor_coef         Fsqd
_refine_ls_R_factor_gt                   0.0441
_refine_ls_wR_factor_gt                  0.1173
_refine_ls_R_factor_all                  0.0774
_refine_ls_wR_factor_ref                 0.1274
_refine_ls_goodness_of_fit_ref           2.77
_refine_ls_goodness_of_fit_gt            3.11
_refine_ls_restrained_S_gt               ?
_refine_ls_restrained_S_all              ?
_refine_ls_number_reflns                 631
_refine_ls_number_parameters             20
_refine_ls_number_restraints             0
_refine_ls_number_constraints            0
_refine_ls_weighting_scheme              sigma
_refine_ls_weighting_details             'w=1/(\s^2^(I)+0.0004I^2^)'
_refine_ls_hydrogen_treatment            ?
_refine_ls_shift/su_max                  0.0001
_refine_ls_shift/su_mean                 0.0000
_refine_diff_density_max                 3.25
_refine_diff_density_min                 -4.62
_refine_ls_extinction_method
 'B-C type 1 Lorentzian isotropic (Becker & Coppens, 1974)'
_refine_ls_extinction_coef               70(30)
_refine_ls_extinction_expression         ?
_refine_ls_abs_structure_details         ?
_refine_ls_abs_structure_Flack           ?
_refine_ls_abs_structure_Rogers          ?

loop_
 _atom_type_symbol
 _atom_type_scat_dispersion_real
 _atom_type_scat_dispersion_imag
 _atom_type_scat_source
 Pd  -0.9988  1.0072
 'International Tables Vol C tables 4.2.6.8 and 6.1.1.1'
 Sn  -0.6537  1.4246
 'International Tables Vol C tables 4.2.6.8 and 6.1.1.1'
 Sr  -1.5307  3.2498
 'International Tables Vol C tables 4.2.6.8 and 6.1.1.1'

_computing_data_collection               ?
_computing_cell_refinement               ?
_computing_data_reduction                ?
_computing_structure_solution            ?
_computing_structure_refinement          ?
_computing_molecular_graphics            ?
_computing_publication_material          ?

loop_
 _restr_distance_atom_site_label_1
 _restr_distance_site_symmetry_1
 _restr_distance_atom_site_label_2
 _restr_distance_site_symmetry_2
 _restr_distance_target
 _restr_distance_target_weight_param
 ? ? ? ? ? ?

loop_
 _restr_angle_atom_site_label_1
 _restr_angle_site_symmetry_1
 _restr_angle_atom_site_label_2
 _restr_angle_site_symmetry_2
 _restr_angle_atom_site_label_3
 _restr_angle_site_symmetry_3
 _restr_angle_target
 _restr_angle_target_weight_param
 ? ? ? ? ? ? ? ?

loop_
 _restr_torsion_atom_site_label_1
 _restr_torsion_site_symmetry_1
 _restr_torsion_atom_site_label_2
 _restr_torsion_site_symmetry_2
 _restr_torsion_atom_site_label_3
 _restr_torsion_site_symmetry_3
 _restr_torsion_atom_site_label_4
 _restr_torsion_site_symmetry_4
 _restr_torsion_angle_target
 _restr_torsion_weight_param
 ? ? ? ? ? ? ? ? ? ?

loop_
 _restr_equal_distance_atom_site_label_1
 _restr_equal_distance_site_symmetry_1
 _restr_equal_distance_atom_site_label_2
 _restr_equal_distance_site_symmetry_2
 _restr_equal_distance_class_class_id
 _restr_equal_distance_class_target_weight_param
 ? ? ? ? ? ?

loop_
 _restr_equal_angle_atom_site_label_1
 _restr_equal_angle_site_symmetry_1
 _restr_equal_angle_atom_site_label_2
 _restr_equal_angle_site_symmetry_2
 _restr_equal_angle_atom_site_label_3
 _restr_equal_angle_site_symmetry_3
 _restr_equal_angle_class_class_id
 _restr_equal_angle_class_target_weight_param
 ? ? ? ? ? ? ? ?

loop_
 _restr_equal_torsion_atom_site_label_1
 _restr_equal_torsion_site_symmetry_1
 _restr_equal_torsion_atom_site_label_2
 _restr_equal_torsion_site_symmetry_2
 _restr_equal_torsion_atom_site_label_3
 _restr_equal_torsion_site_symmetry_3
 _restr_equal_torsion_atom_site_label_4
 _restr_equal_torsion_site_symmetry_4
 _restr_equal_torsion_class_class_id
 _restr_equal_torsion_class_target_weight_param
 ? ? ? ? ? ? ? ? ? ?


#=======================================================================

# 9. ATOMIC COORDINATES AND DISPLACEMENT PARAMETERS

loop_
 _atom_site_label
 _atom_site_type_symbol
 _atom_site_fract_x
 _atom_site_fract_y
 _atom_site_fract_z
 _atom_site_adp_type
 _atom_site_U_iso_or_equiv
 _atom_site_site_symmetry_multiplicity
 _atom_site_occupancy
 _atom_site_calc_flag
 _atom_site_refinement_flags
 _atom_site_disorder_assembly
 _atom_site_disorder_group
  Sn1 Sn 0.15528(18) 0.25 0.06920(17) Uani 0.0140(4) 4 1 d . . .
  Pd1 Pd 0.2934(2) 0.25 0.3863(2) Uani 0.0163(4) 4 1 d . . .
  Sr1 Sr 0.0242(3) 0.25 0.6800(2) Uani 0.0148(5) 4 1 d . . .

loop_
 _atom_site_aniso_label
 _atom_site_aniso_type_symbol
 _atom_site_aniso_U_11
 _atom_site_aniso_U_22
 _atom_site_aniso_U_33
 _atom_site_aniso_U_12
 _atom_site_aniso_U_13
 _atom_site_aniso_U_23
 Sn1 Sn 0.0116(6) 0.0175(7) 0.0128(6) 0 0.0008(5) 0
 Pd1 Pd 0.0127(7) 0.0190(8) 0.0171(7) 0 0.0011(5) 0
 Sr1 Sr 0.0108(7) 0.0195(9) 0.0142(8) 0 -0.0008(6) 0

loop_
 _jana_atom_site_ADP_C_label
 _jana_atom_site_ADP_C_type_symbol
 _jana_atom_site_ADP_C_111
 _jana_atom_site_ADP_C_112
 _jana_atom_site_ADP_C_113
 _jana_atom_site_ADP_C_122
 _jana_atom_site_ADP_C_123
 _jana_atom_site_ADP_C_133
 _jana_atom_site_ADP_C_222
 _jana_atom_site_ADP_C_223
 _jana_atom_site_ADP_C_233
 _jana_atom_site_ADP_C_333
 ? ? ? ? ? ? ? ? ? ? ? ?

loop_
 _jana_atom_site_ADP_D_label
 _jana_atom_site_ADP_D_type_symbol
 _jana_atom_site_ADP_D_1111
 _jana_atom_site_ADP_D_1112
 _jana_atom_site_ADP_D_1113
 _jana_atom_site_ADP_D_1122
 _jana_atom_site_ADP_D_1123
 _jana_atom_site_ADP_D_1133
 _jana_atom_site_ADP_D_1222
 _jana_atom_site_ADP_D_1223
 _jana_atom_site_ADP_D_1233
 _jana_atom_site_ADP_D_1333
 _jana_atom_site_ADP_D_2222
 _jana_atom_site_ADP_D_2223
 _jana_atom_site_ADP_D_2233
 _jana_atom_site_ADP_D_2333
 _jana_atom_site_ADP_D_3333
 ? ? ? ? ? ? ? ? ? ? ? ? ? ? ? ? ?

loop_
 _jana_atom_site_ADP_E_label
 _jana_atom_site_ADP_E_type_symbol
 _jana_atom_site_ADP_E_11111
 _jana_atom_site_ADP_E_11112
 _jana_atom_site_ADP_E_11113
 _jana_atom_site_ADP_E_11122
 _jana_atom_site_ADP_E_11123
 _jana_atom_site_ADP_E_11133
 _jana_atom_site_ADP_E_11222
 _jana_atom_site_ADP_E_11223
 _jana_atom_site_ADP_E_11233
 _jana_atom_site_ADP_E_11333
 _jana_atom_site_ADP_E_12222
 _jana_atom_site_ADP_E_12223
 _jana_atom_site_ADP_E_12233
 _jana_atom_site_ADP_E_12333
 _jana_atom_site_ADP_E_13333
 _jana_atom_site_ADP_E_22222
 _jana_atom_site_ADP_E_22223
 _jana_atom_site_ADP_E_22233
 _jana_atom_site_ADP_E_22333
 _jana_atom_site_ADP_E_23333
 _jana_atom_site_ADP_E_33333
 ? ? ? ? ? ? ? ? ? ? ? ? ? ? ? ? ? ? ? ? ? ? ?

loop_
 _jana_atom_site_ADP_F_label
 _jana_atom_site_ADP_F_type_symbol
 _jana_atom_site_ADP_F_111111
 _jana_atom_site_ADP_F_111112
 _jana_atom_site_ADP_F_111113
 _jana_atom_site_ADP_F_111122
 _jana_atom_site_ADP_F_111123
 _jana_atom_site_ADP_F_111133
 _jana_atom_site_ADP_F_111222
 _jana_atom_site_ADP_F_111223
 _jana_atom_site_ADP_F_111233
 _jana_atom_site_ADP_F_111333
 _jana_atom_site_ADP_F_112222
 _jana_atom_site_ADP_F_112223
 _jana_atom_site_ADP_F_112233
 _jana_atom_site_ADP_F_112333
 _jana_atom_site_ADP_F_113333
 _jana_atom_site_ADP_F_122222
 _jana_atom_site_ADP_F_122223
 _jana_atom_site_ADP_F_122233
 _jana_atom_site_ADP_F_122333
 _jana_atom_site_ADP_F_123333
 _jana_atom_site_ADP_F_133333
 _jana_atom_site_ADP_F_222222
 _jana_atom_site_ADP_F_222223
 _jana_atom_site_ADP_F_222233
 _jana_atom_site_ADP_F_222333
 _jana_atom_site_ADP_F_223333
 _jana_atom_site_ADP_F_233333
 _jana_atom_site_ADP_F_333333
 ? ? ? ? ? ? ? ? ? ? ? ? ? ? ? ? ? ? ? ? ? ? ? ? ? ? ? ? ? ?


#=======================================================================

# 10. MOLECULAR GEOMETRY


loop_
 _geom_bond_atom_site_label_1
 _geom_bond_atom_site_label_2
 _geom_bond_site_symmetry_1
 _geom_bond_site_symmetry_2
 _geom_bond_distance
 _geom_bond_publ_flag
 ? ? ? ? ? ?

loop_
 _geom_angle_atom_site_label_1
 _geom_angle_atom_site_label_2
 _geom_angle_atom_site_label_3
 _geom_angle_site_symmetry_1
 _geom_angle_site_symmetry_2
 _geom_angle_site_symmetry_3
 _geom_angle
 _geom_angle_publ_flag
 ? ? ? ? ? ? ? ?

loop_
 _geom_torsion_atom_site_label_1
 _geom_torsion_atom_site_label_2
 _geom_torsion_atom_site_label_3
 _geom_torsion_atom_site_label_4
 _geom_torsion_site_symmetry_1
 _geom_torsion_site_symmetry_2
 _geom_torsion_site_symmetry_3
 _geom_torsion_site_symmetry_4
 _geom_torsion
 _geom_torsion_publ_flag
 ? ? ? ? ? ? ? ? ? ?

loop_
 _geom_hbond_atom_site_label_D
 _geom_hbond_atom_site_label_H
 _geom_hbond_atom_site_label_A
 _geom_hbond_site_symmetry_D
 _geom_hbond_site_symmetry_H
 _geom_hbond_site_symmetry_A
 _geom_hbond_distance_DH
 _geom_hbond_distance_HA
 _geom_hbond_distance_DA
 _geom_hbond_angle_DHA
 _geom_hbond_publ_flag
 ? ? ? ? ? ? ? ? ? ? ?


#=======================================================================

# 11. STRUCTURE-FACTOR LIST

loop_
 _refln_index_h
 _refln_index_k
 _refln_index_l
 _refln_F_squared_calc
 _refln_F_squared_meas
 _refln_F_squared_sigma
 _refln_observed_status
   2   0   0   6716.00   7030.42    281.27 o
   4   0   0   1490.35   1538.88    200.29 o
   6   0   0  20961.90  21280.60    217.04 o
   8   0   0    222.77    253.27    166.93 <
  10   0   0     41.67     38.85    152.53 <
   2   1   0  11569.00  11250.80    294.15 o
   4   1   0   4364.70   3935.62    174.76 o
   6   1   0   5013.46   5264.13    108.23 o
   8   1   0  31844.70  31414.60    204.17 o
  10   1   0     50.21    -10.07    130.94 <
   0   2   0 147237.00 165217.00    570.45 o
   2   2   0   3974.89   3458.16    154.56 o
   4   2   0    960.99    915.77    167.03 o
   6   2   0  15801.60  15247.00    161.01 o
   8   2   0    180.52    214.41     90.66 <
  10   2   0     36.24    115.11    126.63 <
   2   3   0   5615.58   5267.97    154.56 o
   4   3   0   2101.05   1980.84    118.13 o
   6   3   0   2942.42   2754.86    128.23 o
   8   3   0  20308.60  20806.00    127.60 o
  10   3   0     33.48    -46.05    113.68 <
   0   4   0  51283.10  58230.10    402.21 o
   2   4   0   1425.00   1481.74    133.92 o
   4   4   0    393.05    502.27    119.45 o
   6   4   0   7599.90   7797.98    129.89 o
   8   4   0    105.48     67.63    151.09 <
   2   5   0   1942.40   2163.01     99.37 o
   4   5   0    755.38    860.72    109.39 o
   6   5   0   1308.07   1425.20    132.44 o
   8   5   0   9018.80  10056.50    199.20 o
   0   6   0  15556.20   7437.24    137.49 o
   2   6   0    506.34    552.65    118.01 o
   4   6   0    107.97     60.44    129.51 <
   6   6   0   2725.59   3312.66    152.67 o
   2   7   0    571.99    135.29    118.01 <
   1   0   1   5206.99   4780.23    281.79 o
   2   0   1    385.08    208.78    182.86 <
   3   0   1  63133.90  66925.90    237.97 o
   4   0   1    402.58    522.52    165.54 o
   5   0   1   4583.24   5143.55    155.91 o
   6   0   1  16434.50  16653.50    140.91 o
   7   0   1      1.43   -162.60    133.82 <
   8   0   1    433.89    362.67    132.40 <
   9   0   1    584.23    358.37    122.34 <
  10   0   1   3480.62   2933.34    151.28 o
  11   0   1    202.54     84.90    135.27 <
   0   1   1   4317.84   4035.75    317.92 o
   1   1   1     34.27     35.98    218.73 <
   2   1   1  41564.80  39764.20    249.35 o
   3   1   1   5621.11   5490.25    130.27 o
   4   1   1   5266.06   5543.83    106.95 o
   5   1   1  19478.90  19607.90     99.13 o
   6   1   1     20.56     43.17     70.51 <
   7   1   1     10.21     77.70     71.95 <
   8   1   1   1572.09   1536.35     96.47 o
   9   1   1   2261.78   2091.13     95.05 o
  10   1   1     23.06     15.83     86.34 <
  11   1   1   7552.75   6332.11    157.26 o
   1   2   1   3086.86   2920.51    115.49 o
   2   2   1    202.88    155.43    115.14 <
   3   2   1  41759.80  39334.00    171.03 o
   4   2   1    312.80    146.80     99.31 <
   5   2   1   3290.19   3455.76    129.75 o
   6   2   1  12372.00  12284.50    110.04 o
   7   2   1      1.26     14.39     70.51 <
   8   2   1    358.42    369.86     71.96 o
   9   2   1    474.01    489.32     82.03 o
  10   2   1   2808.79   2526.38    112.35 o
  11   2   1    169.42   -116.56    116.56 <
   0   3   1   1733.47   1728.90    167.13 o
   1   3   1     56.83    -18.71     92.09 <
   2   3   1  18404.80  17652.80    119.45 o
   3   3   1   2653.67   2610.14     86.48 o
   4   3   1   2823.13   2751.19    102.32 o
   5   3   1  10894.70  10517.50    105.61 o
   6   3   1     15.27     34.53     84.90 <
   7   3   1      6.60    -46.05     89.21 <
   8   3   1    998.29    974.51     76.29 o
   9   3   1   1540.57   1474.27     80.62 o
  10   3   1     14.92     97.85     89.21 <
   1   4   1   1140.28   1078.40    112.30 o
   2   4   1     61.51     17.27     80.58 <
   3   4   1  16726.90  17063.10    105.89 o
   4   4   1    148.67    227.36     89.22 <
   5   4   1   1498.60   1565.09     76.31 o
   6   4   1   5946.99   6184.61     92.31 o
   7   4   1      1.09     25.90     83.46 <
   8   4   1    227.96    306.51     89.22 o
   9   4   1    268.70    237.44     80.59 <
   0   5   1    574.14    659.18    138.17 o
   1   5   1     26.03     46.05     67.63 <
   2   5   1   6208.71   6786.17     90.89 o
   3   5   1    943.81   1073.84     83.49 o
   4   5   1   1040.46   1122.81     80.61 o
   5   5   1   4302.29   4783.47     90.80 o
   6   5   1     10.52     34.53     89.21 <
   7   5   1      2.78    -24.46     93.53 <
   8   5   1    431.90    436.06    116.57 o
   1   6   1    376.47    105.06     73.39 <
   2   6   1     16.70    119.43     74.82 <
   3   6   1   5444.43   6534.00     95.16 o
   4   6   1     44.54    174.11     94.97 <
   5   6   1    556.89    698.01    100.74 o
   6   6   1   2079.57   2541.53    112.32 o
   0   7   1    218.87    119.44     99.29 <
   1   7   1     10.65     -2.88     74.82 <
   2   7   1   1716.99   2351.16    113.74 o
   3   7   1    299.17    282.06    139.59 <
   0   0   2   3110.57   2832.65    393.91 o
   1   0   2    728.75    628.20    247.82 <
   2   0   2  15543.80  15408.40    226.36 o
   3   0   2  21382.30  21538.50    191.27 o
   4   0   2  10350.90  10587.10    163.99 o
   5   0   2   3861.46   3837.48    135.61 o
   6   0   2    968.51    830.71    141.09 o
   7   0   2   2782.03   2839.90    113.83 o
   8   0   2    241.04    178.44    106.49 <
   9   0   2  11488.00  10359.80    171.99 o
  10   0   2    841.06    859.29    185.68 o
  11   0   2   2447.46   2645.56    168.50 o
   1   1   2  37572.90  39635.60    242.40 o
   2   1   2   3491.10   3356.46    156.05 o
   3   1   2  15097.80  14520.30    144.50 o
   4   1   2   5228.21   5247.35     96.80 o
   5   1   2  22203.30  22727.80    105.07 o
   6   1   2   5203.39   5259.65     77.92 o
   7   1   2     98.36    187.07     71.95 <
   8   1   2    479.61    107.94    110.82 <
   9   1   2      7.13     -5.76     89.21 <
  10   1   2   1469.04   1402.24    105.10 o
  11   1   2    312.67    260.47     99.30 <
   0   2   2   1942.70   1910.27    158.59 o
   1   2   2    337.75    200.07    118.03 <
   2   2   2  10020.20   9803.13    184.34 o
   3   2   2  14231.20  13773.70    135.26 o
   4   2   2   7375.01   7229.36    114.22 o
   5   2   2   2847.56   2990.57     90.80 o
   6   2   2    738.44    883.82     80.61 o
   7   2   2   2164.98   2088.41     67.69 o
   8   2   2    190.31    181.32     69.07 <
   9   2   2   9263.21   9122.23     98.18 o
  10   2   2    694.89    503.74     97.87 o
  11   2   2   2073.43   1732.27    128.16 o
   1   3   2  16833.20  16259.40    122.25 o
   2   3   2   1740.40   1737.28    133.97 o
   3   3   2   7508.12   7381.19    150.31 o
   4   3   2   2832.53   2977.32    102.32 o
   5   3   2  12466.80  12818.40    104.23 o
   6   3   2   3094.92   3167.03     90.77 o
   7   3   2     60.99     14.39     83.46 <
   8   3   2    331.22    451.88     70.52 o
   9   3   2      3.63    -60.43     77.70 <
  10   3   2    965.33   1151.52    102.20 o
   0   4   2    756.41    755.73    132.43 o
   1   4   2     81.13     99.29     76.27 <
   2   4   2   3917.36   4000.78    100.92 o
   3   4   2   5772.90   5781.49     93.79 o
   4   4   2   3238.29   3544.83     96.55 o
   5   4   2   1340.98   1446.92     84.94 o
   6   4   2    376.01    356.90     80.59 o
   7   4   2   1081.28   1121.36     87.81 o
   8   4   2     96.87    -23.02     96.41 <
   9   4   2   5025.05   5533.72     89.37 o
   1   5   2   5690.09   6747.25    119.71 o
   2   5   2    618.83    702.37     96.43 o
   3   5   2   2767.74   2996.24    105.16 o
   4   5   2   1070.33   1168.88    113.72 o
   5   5   2   4937.18   5685.50    105.23 o
   6   5   2   1266.72   1468.36     96.45 o
   7   5   2     25.57    117.99    100.72 <
   8   5   2    185.45     57.56    107.93 <
   0   6   2    266.79    254.71    115.12 <
   1   6   2     25.96    135.26     73.39 <
   2   6   2   1221.17   1569.11     96.45 o
   3   6   2   1884.67   2339.82     86.39 o
   4   6   2   1075.58   1409.24    103.64 o
   5   6   2    534.74    624.61    119.45 o
   6   6   2    164.43    306.51    105.05 <
   1   7   2   1592.44    167.01     99.34 <
   2   7   2    203.66    267.66    107.93 <
   1   0   3  11877.20  11796.50    274.61 o
   2   0   3   6480.70   6470.24    186.93 o
   3   0   3   9099.36   9399.23    165.38 o
   4   0   3    106.58     76.27    130.95 <
   5   0   3    113.81    120.88    132.39 <
   6   0   3   8485.55   8770.65    198.02 o
   7   0   3   6893.53   6814.75    134.24 o
   8   0   3  14959.40  14347.40    186.76 o
   9   0   3    523.87    630.37    174.14 o
  10   0   3    509.67    597.26    135.28 o
  11   0   3     12.04   -205.77    175.55 <
   0   1   3  79602.80  73408.20    385.98 o
   1   1   3  13301.30  12258.00    211.72 o
   2   1   3  13122.80  13507.20    180.72 o
   3   1   3     35.55     23.02     99.29 <
   4   1   3    610.54    764.39     93.57 o
   5   1   3   1135.50   1241.19     73.43 o
   6   1   3   8959.98   9171.97     83.84 o
   7   1   3   5038.49   5168.81     79.32 o
   8   1   3    445.64    400.09     84.91 o
   9   1   3    995.30   1131.41     90.69 o
  10   1   3    138.03    253.26    105.05 <
  11   1   3   1658.83   1647.07    113.74 o
   1   2   3   7834.14   7902.25    128.90 o
   2   2   3   4584.60   4488.02    127.07 o
   3   2   3   6223.97   6157.60    130.06 o
   4   2   3     63.39     87.78     93.53 <
   5   2   3     92.46    133.83     84.90 <
   6   2   3   6498.23   6360.80     89.49 o
   7   2   3   5404.24   5494.86     76.44 o
   8   2   3  11988.10  11757.30     89.63 o
   9   2   3    431.45    319.49     77.71 o
  10   2   3    427.02    175.57    125.20 <
  11   2   3      9.82    407.21    276.27 <
   0   3   3  37430.30  40679.00    223.92 o
   1   3   3   6237.99   6556.86    137.23 o
   2   3   3   6385.19   6342.42    132.89 o
   3   3   3     25.53     34.53     79.14 <
   4   3   3    355.82    470.61     94.99 o
   5   3   3    656.48    660.66     99.32 o
   6   3   3   5430.70   5463.19    108.17 o
   7   3   3   3132.08   3127.73     93.64 o
   8   3   3    293.77     83.47     70.51 <
   9   3   3    627.80    565.62     77.72 o
  10   3   3    101.56    -20.15    102.17 <
   1   4   3   3148.31   3398.21     99.44 o
   2   4   3   1954.27   1912.66    123.86 o
   3   4   3   2633.10   2666.62     90.76 o
   4   4   3     24.80   -132.38     76.26 <
   5   4   3     46.93    149.65     80.58 <
   6   4   3   3275.94   3355.45    102.29 o
   7   4   3   2782.51   3032.00    126.75 o
   8   4   3   6511.46   7017.94    128.36 o
   9   4   3    251.43    237.44     90.66 <
   0   5   3  13054.60  14939.00    131.64 o
   1   5   3   2184.51   2671.56     90.73 o
   2   5   3   2310.38   2533.39    132.50 o
   3   5   3     10.88     28.78     77.70 <
   4   5   3    146.44      5.76     90.66 <
   5   5   3    247.14    168.37     86.34 <
   6   5   3   2333.41   2553.33     90.73 o
   7   5   3   1308.81   1626.72    109.41 o
   8   5   3    137.67    185.63    132.39 <
   1   6   3    961.49   1177.44     95.00 o
   2   6   3    654.51    788.71    149.68 o
   3   6   3    822.86   1053.59     97.87 o
   4   6   3      6.15    189.94     92.09 <
   5   6   3     14.46    -77.70     94.97 <
   6   6   3   1263.20   1134.36    169.87 o
   0   7   3   3910.91   3580.58    242.07 o
   1   7   3    647.29    474.95    141.04 o
   0   0   4  26058.80  22893.00    298.21 o
   1   0   4   4218.02   3850.36    158.93 o
   2   0   4   7521.81   7194.08    166.56 o
   3   0   4     76.43     96.41    149.66 <
   4   0   4   1727.34   1774.76    138.29 o
   5   0   4  21915.60  22648.10    150.04 o
   6   0   4    607.03    708.16    112.27 o
   7   0   4    302.12    201.48    110.81 <
   8   0   4    864.51   1229.26    116.59 o
   9   0   4     64.69   -128.07    123.75 <
  10   0   4    901.54    893.85    133.86 o
  11   0   4   7043.21   5952.99    188.96 o
   1   1   4    144.77    128.08    118.01 <
   2   1   4    881.49    921.57    109.44 o
   3   1   4  42799.30  44811.40    154.21 o
   4   1   4   5407.98   5607.71    103.95 o
   5   1   4    148.84    143.90     79.15 <
   6   1   4   4209.51   4205.83     83.63 o
   7   1   4    421.26    335.33     86.35 o
   8   1   4   4109.96   4188.24     93.68 o
   9   1   4   2084.25   2152.83     90.72 o
  10   1   4    190.32    175.56     99.29 <
  11   1   4     76.89    315.13    187.06 <
   0   2   4  17465.70  17238.10    273.99 o
   1   2   4   3022.61   3133.58    122.57 o
   2   2   4   5149.17   5253.04    122.74 o
   3   2   4     56.34     15.83    109.36 <
   4   2   4   1259.83   1291.61    119.51 o
   5   2   4  16632.40  17131.20    103.01 o
   6   2   4    470.89    584.32     84.91 o
   7   2   4    234.67    204.35     74.83 <
   8   2   4    698.96    755.63     86.36 o
   9   2   4     60.76    126.63    100.73 <
  10   2   4    742.04    765.70     97.87 o
   1   3   4     84.31    106.49    119.44 <
   2   3   4    434.91    417.39     96.43 o
   3   3   4  23469.00  23851.90    135.43 o
   4   3   4   3038.86   3212.00    105.19 o
   5   3   4     92.10    224.48     80.58 <
   6   3   4   2610.40   2604.33     92.19 o
   7   3   4    284.13    174.13     87.78 <
   8   3   4   2697.15   2893.62     89.30 o
   9   3   4   1407.73   1348.93    128.13 o
  10   3   4    134.62    322.33    107.92 <
   0   4   4   7153.62   8256.67    179.02 o
   1   4   4   1309.33   1356.28    100.79 o
   2   4   4   2179.84   2379.43     97.94 o
   3   4   4     27.96     83.46     80.58 <
   4   4   4    583.30    669.26    100.75 o
   5   4   4   8091.53   8620.49     99.60 o
   6   4   4    238.85    168.37    119.44 <
   7   4   4    106.74     -5.76     99.29 <
   8   4   4    386.09    536.79    125.20 o
   9   4   4     52.46    151.09    112.24 <
   1   5   4     36.79    146.77     84.90 <
   2   5   4    163.68    231.68     86.34 <
   3   5   4   9035.93   9943.79    115.51 o
   4   5   4   1220.42   1554.73     92.13 o
   5   5   4     33.27    320.88     93.53 o
   6   5   4   1158.87   1495.65     95.01 o
   7   5   4    156.84    434.58    118.00 o
   0   6   4   2375.88   3115.02    167.06 o
   1   6   4    459.28    531.05    145.35 o
   2   6   4    760.62    801.69    106.51 o
   3   6   4     15.55    -86.34     90.65 <
   4   6   4    200.76    250.39    102.17 <
   5   6   4   2922.87   3863.11    105.15 o
   1   0   5  17820.00  16831.70    189.61 o
   2   0   5  15714.20  14632.30    164.42 o
   3   0   5   4436.33   4365.25    158.74 o
   4   0   5   3958.19   4019.44    145.66 o
   5   0   5  13493.40  14126.50    153.58 o
   6   0   5    792.33   1013.36    123.79 o
   7   0   5     21.21    -60.43    113.68 <
   8   0   5   3408.29   3537.16    142.64 o
   9   0   5     65.46     74.83    122.31 <
  10   0   5    269.83      8.63    135.27 <
   0   1   5  10875.30  10193.90    168.26 o
   1   1   5    529.10    545.56    107.96 o
   2   1   5   2036.02   1909.20    113.83 o
   3   1   5   8795.03   8670.39    114.29 o
   4   1   5   1758.60   1868.10     86.42 o
   5   1   5    768.29    891.03     82.05 o
   6   1   5   6029.22   6271.89     85.13 o
   7   1   5   1504.02   1667.29    105.11 o
   8   1   5    521.21    473.50     94.99 o
   9   1   5   6563.16   6709.66    116.83 o
  10   1   5   2649.99   2557.89    108.02 o
   1   2   5  12778.20  12178.40    153.73 o
   2   2   5  11449.20  11434.30    121.69 o
   3   2   5   3265.76   3600.88     98.02 o
   4   2   5   2987.41   3236.68    116.73 o
   5   2   5  10388.90  10774.10    108.43 o
   6   2   5    618.58    604.50     82.04 o
   7   2   5     17.12    -31.66     82.02 <
   8   2   5   2749.61   2790.01     86.42 o
   9   2   5     51.34    110.80    100.73 <
  10   2   5    213.81     90.66    118.00 <
   0   3   5   6011.25   5723.24    249.71 o
   1   3   5    259.26    260.48    113.69 <
   2   3   5   1115.58   1066.83    105.10 o
   3   3   5   4999.72   5092.86    115.39 o
   4   3   5   1046.59    837.84    103.65 o
   5   3   5    481.23    420.25     83.47 o
   6   3   5   3795.79   4095.48    110.96 o
   7   3   5    949.97   1088.20     90.68 o
   8   3   5    341.55    286.38     83.47 o
   9   3   5   4369.30   4042.33    126.82 o
   1   4   5   5693.76   6695.96    115.40 o
   2   4   5   5221.13   6183.76    121.14 o
   3   4   5   1558.93   1742.20    126.71 o
   4   4   5   1474.18   1399.44    103.66 o
   5   4   5   5190.02   5781.41    115.34 o
   6   4   5    305.50    169.81     90.66 <
   7   4   5      9.39    -15.83     94.97 <
   8   4   5   1502.26   1596.60    118.05 o
   0   5   5   2296.70   3113.66    146.90 o
   1   5   5    101.46    176.99     97.85 <
   2   5   5    420.72    336.76    113.69 <
   3   5   5   1999.82   2309.73    100.80 o
   4   5   5    471.19    568.47     96.42 o
   5   5   5    238.31    273.42     92.10 <
   6   5   5   1679.35   1876.01    109.42 o
   7   5   5    402.24     79.15    115.13 <
   1   6   5   1893.86   2555.78    197.26 o
   2   6   5   1846.58   1249.79    103.67 o
   3   6   5    633.87    592.97    119.46 o
   4   6   5    584.09    446.15     94.99 o
   0   0   6   4156.12   3816.11    216.41 o
   1   0   6  16690.10  14796.50    183.21 o
   2   0   6  15480.50  13981.10    165.56 o
   3   0   6    670.87    637.68    149.70 o
   4   0   6   7761.61   7543.81    156.02 o
   5   0   6     78.91    228.80    126.63 <
   6   0   6   1084.81   1356.08    148.28 o
   7   0   6   2698.11   2633.13    121.00 o
   8   0   6    551.39    461.99    119.45 o
   9   0   6     24.87      0.00    139.58 <
  10   0   6    513.23    509.47    153.99 o
   1   1   6   1857.84   1744.49    102.28 o
   2   1   6   1769.16   1716.94     97.95 o
   3   1   6   1205.44   1179.24    100.79 o
   4   1   6   3138.76   3140.28     82.15 o
   5   1   6   1096.20   1184.82     79.18 o
   6   1   6   7373.25   7721.93    103.92 o
   7   1   6   7447.38   7854.68    119.78 o
   8   1   6    952.02    880.92     89.24 o
   9   1   6   1628.44   1747.85     97.90 o
  10   1   6   2045.74   2102.32    131.04 o
   0   2   6   3082.55   3469.32    162.87 o
   1   2   6  12354.60  12258.70    121.68 o
   2   2   6  11611.20  11577.90    137.52 o
   3   2   6    505.46    414.51     99.31 o
   4   2   6   5991.62   6393.39     89.46 o
   5   2   6     63.42     41.73     86.34 <
   6   2   6    877.77    837.74     90.68 o
   7   2   6   2166.76   2115.49     90.73 o
   8   2   6    444.59    473.48     97.86 o
   9   2   6     19.90    174.11    107.92 <
   1   3   6   1080.44   1145.96    115.17 o
   2   3   6   1044.72   1200.63    118.05 o
   3   3   6    711.00   1010.43    106.51 o
   4   3   6   1914.69   2090.97    113.76 o
   5   3   6    702.33    787.30     87.80 o
   6   3   6   4705.36   4935.57     96.58 o
   7   3   6   4908.60   5042.26     85.05 o
   8   3   6    696.11    767.13     92.11 o
   9   3   6   1128.91    939.98     97.88 o
   0   4   6   1487.10   1517.54    152.62 o
   1   4   6   5838.32   7412.18    111.06 o
   2   4   6   5529.72   6705.78    121.14 o
   3   4   6    253.25     80.59    116.56 <
   4   4   6   2982.20   3265.71    118.12 o
   5   4   6     38.51    -64.75    110.80 <
   6   4   6    510.53    623.16     87.79 o
   7   4   6   1165.00   1068.11    112.28 o
   8   4   6    237.98    306.51     97.85 o
   1   5   6    424.35    543.99    200.04 <
   2   5   6    453.11    342.52    103.62 o
   3   5   6    278.75    178.44     99.30 <
   4   5   6    802.78   1069.42    123.78 o
   5   5   6    331.21    204.35     99.30 <
   6   5   6   2065.16   2630.79    113.76 o
   0   6   6    626.49    849.15    166.95 o
   1   6   6   2117.37   2517.09    138.24 o
   2   6   6   1913.85   1098.63    125.27 o
   3   6   6     99.17    -17.27    126.63 <
   1   0   7   1781.21   1476.30    138.27 o
   2   0   7    716.26    519.64    130.99 o
   3   0   7   5281.83   4653.91    174.56 o
   4   0   7   8719.84   8071.21    134.35 o
   5   0   7     55.83    159.72    119.43 <
   6   0   7    155.98    303.63    125.19 <
   7   0   7   3876.06   4406.60    158.51 o
   8   0   7   4259.33   4559.70    165.73 o
   9   0   7   2283.98   2456.76    146.89 o
   0   1   7  16281.40  15442.00    156.73 o
   1   1   7   8861.09   8745.41    108.41 o
   2   1   7     58.30    133.82     87.78 <
   3   1   7      5.64     74.82     79.14 <
   4   1   7   6313.55   6242.30     88.02 o
   5   1   7   4383.40   4491.87     92.26 o
   6   1   7    731.91    677.92    100.75 o
   7   1   7    988.19   1059.43     97.88 o
   8   1   7    175.63    -46.05     94.97 <
   9   1   7    343.32    450.43    105.05 o
   1   2   7   1366.74   1674.55    115.19 o
   2   2   7    552.06    536.85    102.19 o
   3   2   7   4113.33   4230.92    103.79 o
   4   2   7   6847.34   6985.87     98.13 o
   5   2   7     44.22    -67.63     80.58 <
   6   2   7    135.02    177.00     84.90 <
   7   2   7   3174.71   3039.61     92.20 o
   8   2   7   3446.43   3336.59    125.34 o
   9   2   7   1902.17   1651.53    174.22 o
   0   3   7   9752.55  11604.40    173.39 o
   1   3   7   5361.01   5676.53    125.47 o
   2   3   7     42.73     -5.76     94.97 <
   3   3   7      3.58     10.07     97.85 <
   4   3   7   3945.14   4396.90    116.73 o
   5   3   7   2844.64   3098.42    100.83 o
   6   3   7    461.38    436.06     96.42 o
   7   3   7    672.31    627.52     90.67 o
   8   3   7    126.82     87.78     96.41 <
   1   4   7    687.46    902.44    105.07 o
   2   4   7    288.50    349.70    103.61 o
   3   4   7   2122.82   2305.53    126.72 o
   4   4   7   3530.46   4198.40    128.23 o
   5   4   7     22.68    -15.83     90.65 <
   6   4   7     93.38   -214.40    112.24 <
   7   4   7   1815.88   1910.65    131.02 o
   0   5   7   3996.08   5253.81    165.71 o
   1   5   7   2317.54   3462.02    142.57 o
   2   5   7     24.19     66.19    126.63 <
   3   5   7      1.84    -44.61    106.48 <
   4   5   7   1669.67   1976.79    120.94 o
   5   5   7   1331.71   1504.37    136.76 o
   1   6   7    270.80    182.76    149.66 <
   0   0   8   5561.74   5120.05    178.89 o
   1   0   8    236.80    280.62    116.57 <
   2   0   8   4716.62   4315.88    134.10 o
   3   0   8    297.16    263.36    135.27 <
   4   0   8   1109.85   1155.98    133.88 o
   5   0   8   1448.97   1465.65    120.94 o
   6   0   8   5409.14   5141.59    126.88 o
   7   0   8    139.72    204.34    162.61 <
   8   0   8   1050.22   1142.92    165.54 o
   9   0   8    152.11    348.24    161.17 <
   1   1   8     20.30    115.11     90.65 <
   2   1   8  11737.90  10863.90    120.05 o
   3   1   8   4135.61   3979.86     98.02 o
   4   1   8   3618.74   3939.80    113.84 o
   5   1   8    435.51    447.58     94.98 o
   6   1   8   2207.77   1925.41    108.01 o
   7   1   8    169.15    202.90     93.54 <
   8   1   8   2143.70   1797.12    129.60 o
   0   2   8   4344.38   4695.31    181.64 o
   1   2   8    185.32    106.49    112.24 <
   2   2   8   3696.23   3881.00    109.53 o
   3   2   8    237.85    125.20     94.98 <
   4   2   8    909.48    997.52    100.76 o
   5   2   8   1165.45   1056.63    100.77 o
   6   2   8   4388.24   4415.87     95.12 o
   7   2   8    110.82   -165.48    113.68 <
   8   2   8    859.06   1065.12    118.03 o
   1   3   8     14.87    103.60    120.87 <
   2   3   8   7437.25   8219.76    115.45 o
   3   3   8   2638.94   2935.45     97.94 o
   4   3   8   2409.19   2914.97    118.10 o
   5   3   8    296.43    355.45    123.76 <
   6   3   8   1423.95   1416.61    113.73 o
   7   3   8    109.83    -20.15     90.66 <
   0   4   8   2196.01   2701.59    161.29 o
   1   4   8     94.82    105.04    138.14 <
   2   4   8   1863.71   2253.43    110.87 o
   3   4   8    132.01   -155.41    161.17 <
   4   4   8    546.70    677.86    120.89 o
   5   4   8    631.99    221.64    139.61 <
   6   4   8   2426.72   2608.08    131.05 o
   1   5   8     10.23     66.19    123.75 <
   2   5   8   3331.49   4066.80    142.62 o
   3   5   8   1173.46    241.84    152.59 <
   4   5   8   1182.77    184.26    136.75 <
   1   0   9    516.31    702.34    128.09 o
   2   0   9   1439.42   1327.46    122.38 o
   3   0   9   1417.49   1338.94    139.65 o
   4   0   9   2757.25   2624.48    167.09 o
   5   0   9   3595.88   3388.84    129.68 o
   6   0   9    779.80    767.16    149.69 o
   7   0   9   3061.07   2960.16    168.54 o
   8   0   9     52.09    -67.63    155.41 <
   0   1   9     63.21     94.97    119.43 <
   1   1   9   7583.39   7343.89    106.81 o
   2   1   9   1704.65   1736.52     99.35 o
   3   1   9   1533.15   1462.81     97.90 o
   4   1   9   3398.33   3077.49    129.67 o
   5   1   9   2601.85   2631.41    113.78 o
   6   1   9    356.83    423.10    115.13 o
   7   1   9     82.10    142.46    109.36 <
   8   1   9     36.28    -18.71    122.31 <
   1   2   9    404.20    394.33    100.74 o
   2   2   9   1164.01   1448.20    105.09 o
   3   2   9   1130.90   1138.67     96.45 o
   4   2   9   2228.11   2302.72    103.69 o
   5   2   9   2911.06   3343.23    116.67 o
   6   2   9    631.17    972.92    115.14 o
   7   2   9   2556.50   2809.83    142.58 o
   0   3   9     49.83     -1.44    143.89 <
   1   3   9   4963.65   5639.42    134.07 o
   2   3   9   1086.61   1262.43    119.48 o
   3   3   9    993.37   1157.30    130.99 o
   4   3   9   2230.49   2733.24    129.61 o
   5   3   9   1732.51   2060.35    109.42 o
   6   3   9    262.36    179.88    103.61 <
   1   4   9    193.96    279.17    128.07 <
   2   4   9    657.15    437.53    119.46 o
   3   4   9    598.76    728.24    158.31 o
   4   4   9   1220.76    310.94    136.76 <
   5   4   9   1579.72    303.78    141.09 <
   0   5   9     37.86    444.63    207.21 <
   1   5   9   2321.65   3123.53    172.81 o
   0   0  10    530.63    603.03    189.98 o
   1   0  10   7780.01   7412.19    142.88 o
   2   0  10     44.77     46.05    135.26 <
   3   0  10     22.81     67.63    145.33 <
   4   0  10   1343.70    352.71    131.01 <
   5   0  10    278.88    -57.56    158.30 <
   6   0  10     27.34    -94.97    143.89 <
   7   0  10   2834.48   2527.79    174.28 o
   1   1  10   3631.57   3563.32     97.98 o
   2   1  10   1017.95    973.08     96.44 o
   3   1  10     54.25   -109.36     96.41 <
   4   1  10   1824.67   1753.75    116.63 o
   5   1  10     22.21      1.44    110.80 <
   6   1  10     75.83     -2.88    125.19 <
   7   1  10   4929.32   2170.73    233.51 o
   0   2  10    424.27    581.41    139.60 o
   1   2  10   6327.16   6732.48    122.59 o
   2   2  10     38.17     66.19    112.24 <
   3   2  10     17.94    210.08    109.36 <
   4   2  10   1096.98   1017.71    136.75 o
   5   2  10    244.85      4.32    112.25 <
   6   2  10     24.20     94.97    126.63 <
   1   3  10   2361.77   2766.48    131.05 o
   2   3  10    690.23    865.00    130.97 o
   3   3  10     29.63     -2.88    123.75 <
   4   3  10   1232.26   1278.31    125.24 o
   5   3  10     14.96     40.29    116.55 <
   0   4  10    219.84    143.90    202.90 <
   1   4  10   3539.47   4663.53    174.32 o
   2   4  10     24.34    -96.41    169.79 <
   3   4  10      9.09   -198.57    164.04 <
   1   0  11   1113.61   1150.15    149.71 o
   2   0  11   4427.97   3780.26    168.62 o
   3   0  11   1180.84    598.84    142.51 o
   4   0  11   4599.17   4263.20    167.18 o
   5   0  11    396.27    284.95    141.03 <
   0   1  11     48.39    -40.29    145.33 <
   1   1  11      4.16     56.12    103.60 <
   2   1  11    117.81    -27.34    109.36 <
   3   1  11    228.88    166.93     99.29 <
   4   1  11   2778.72   2830.23    132.51 o
   5   1  11    459.23    302.22    149.67 <
   1   2  11    889.61   1039.22    123.79 o
   2   2  11   3665.36   3842.55    142.64 o
   3   2  11    950.77    652.05    139.62 o
   4   2  11   3812.17   2221.76    132.56 o
   0   3  11     38.36    146.77    225.91 <
   1   3  11      2.45   -135.26    138.14 <
   2   3  11     79.48     34.53    133.82 <
   3   3  11    148.17    -59.00    161.17 <
   0   0  12    250.67    129.51    224.49 <
   1   0  12   2914.92   2815.95    191.57 o
   2   0  12    662.18    880.82    162.63 o
   3   0  12    333.62    169.81    171.25 <
   1   1  12    105.11    233.11    116.56 <
   2   1  12   1230.94   1282.62    138.20 o
   3   1  12   1538.84   1055.29    159.80 o
   0   2  12    204.53    207.22    201.46 <
   1   2  12   2431.59   2358.94    148.33 o

loop_
 _twin_refln_datum_id
 _twin_refln_individual_id
 _twin_refln_index_h
 _twin_refln_index_k
 _twin_refln_index_l
 _twin_refln_F_squared_calc
 _twin_refln_F_squared_meas
 _twin_refln_F_squared_sigma
 _twin_refln_include_status
 ? ? ? ? ? ? ? ? ?

