
#=======================================================================
data_global
#=======================================================================

_audit_creation_method                   'Jana2006 Version : 11/10/2017'


# 1. PROCESSING SUMMARY (IUCr Office Use Only)

_journal_date_recd_electronic            ?
_journal_date_to_coeditor                ?
_journal_date_from_coeditor              ?
_journal_date_accepted                   ?
_journal_date_printers_first             ?
_journal_date_printers_final             ?
_journal_date_proofs_out                 ?
_journal_date_proofs_in                  ?
_journal_coeditor_name                   ?
_journal_coeditor_code                   ?
_journal_coeditor_notes
; ?
;
_journal_techeditor_code                 ?
_journal_paper_category                  ?
_journal_techeditor_notes
; ?
;
_journal_coden_ASTM                      ?
_journal_name_full                       'Acta Crystallographica Section C'
_journal_year                            ?
_journal_volume                          ?
_journal_issue                           ?
_journal_page_first                      ?
_journal_page_last                       ?
_journal_suppl_publ_number               ?
_journal_suppl_publ_pages                ?

#=======================================================================

# 2. SUBMISSION DETAILS

_publ_contact_author_name                ?
_publ_contact_author_address
; ?
;
_publ_contact_author_email               ?
_publ_contact_author_fax                 ?
_publ_contact_author_phone               ?

_publ_requested_journal                  'Acta Crystallographica Section C'
_publ_requested_category                 ?

_publ_contact_letter
; ?
;

#=======================================================================

# 3. TITLE AND AUTHOR LIST

_publ_section_title
; ?
;
_publ_section_title_footnote
; ?
;
loop_
 _publ_author_name
 _publ_author_footnote
 _publ_author_address
; ?      # name
;
; ?      # footnote
;
; ?      # address
;

#=======================================================================

# 4. TEXT

_publ_section_synopsis
; ?
;
_publ_section_abstract
; ?
;
_publ_section_comment
; ?
;
_publ_section_introduction
; ?
;
_publ_section_experimental
; ?
;
_publ_section_exptl_prep
; ?
;
_publ_section_exptl_refinement
; ?
;
_publ_section_exptl_solution
; ?
;
_publ_section_discussion
; ?
;
_publ_section_acknowledgements
; ?
;
_publ_section_references
;
;
_publ_section_figure_captions
; ?
;
_publ_section_table_legends
; ?
;

#=======================================================================
data_I
#=======================================================================

# 5. CHEMICAL DATA

_chemical_name_systematic
; ?
;
_chemical_name_common                    ?
_chemical_formula_moiety                 ?
_chemical_formula_structural             ?
_chemical_formula_analytical             ?
_chemical_formula_iupac                  ?
_chemical_formula_sum                    'Eu1 Ni4 Sn2'
_chemical_formula_weight                 624.1
_chemical_melting_point                  ?
_chemical_compound_source                ?
_chemical_absolute_configuration         .

#=======================================================================

# 6. CRYSTAL DATA

_symmetry_cell_setting                   tetragonal
_symmetry_space_group_name_H-M           'I 4/m c m'
_symmetry_space_group_name_Hall          '-I 4;-2c'
_symmetry_Int_Tables_number              140

loop_
 _space_group_symop_id
 _space_group_symop_operation_xyz
 1   x,y,z
 2   -x,-y,z
 3   -y,x,z
 4   y,-x,z
 5   -x,y,-z+1/2
 6   x,-y,-z+1/2
 7   y,x,-z+1/2
 8   -y,-x,-z+1/2
 9   -x,-y,-z
 10  x,y,-z
 11  y,-x,-z
 12  -y,x,-z
 13  x,-y,z+1/2
 14  -x,y,z+1/2
 15  -y,-x,z+1/2
 16  y,x,z+1/2
 17  x+1/2,y+1/2,z+1/2
 18  -x+1/2,-y+1/2,z+1/2
 19  -y+1/2,x+1/2,z+1/2
 20  y+1/2,-x+1/2,z+1/2
 21  -x+1/2,y+1/2,-z
 22  x+1/2,-y+1/2,-z
 23  y+1/2,x+1/2,-z
 24  -y+1/2,-x+1/2,-z
 25  -x+1/2,-y+1/2,-z+1/2
 26  x+1/2,y+1/2,-z+1/2
 27  y+1/2,-x+1/2,-z+1/2
 28  -y+1/2,x+1/2,-z+1/2
 29  x+1/2,-y+1/2,z
 30  -x+1/2,y+1/2,z
 31  -y+1/2,-x+1/2,z
 32  y+1/2,x+1/2,z

_cell_length_a                           7.8373(5)
_cell_length_b                           7.8373(5)
_cell_length_c                           7.7590(5)
_cell_angle_alpha                        90
_cell_angle_beta                         90
_cell_angle_gamma                        90
_cell_volume                             476.58(5)

loop_
 _twin_individual_id
 _twin_individual_mass_fraction_refined
 _twin_individual_twin_matrix_11
 _twin_individual_twin_matrix_12
 _twin_individual_twin_matrix_13
 _twin_individual_twin_matrix_21
 _twin_individual_twin_matrix_22
 _twin_individual_twin_matrix_23
 _twin_individual_twin_matrix_31
 _twin_individual_twin_matrix_32
 _twin_individual_twin_matrix_33
 ? ? ? ? ? ? ? ? ? ? ?

_cell_formula_units_Z                    4

_cell_measurement_reflns_used            ?
_cell_measurement_theta_min              ?
_cell_measurement_theta_max              ?
_cell_measurement_temperature            293
_cell_special_details
; ?
;

_exptl_crystal_density_diffrn            8.6987
_exptl_crystal_density_meas              ?
_exptl_crystal_density_method            ?
_exptl_crystal_F_000                     1100

_exptl_absorpt_coefficient_mu            38.524
_exptl_crystal_description               ?
_exptl_crystal_size_max                  ?
_exptl_crystal_size_mid                  ?
_exptl_crystal_size_min                  ?
_exptl_crystal_size_rad                  ?
_exptl_crystal_colour                    ?
_exptl_absorpt_correction_type           ?
_exptl_absorpt_process_details           ?
_exptl_absorpt_correction_T_min          ?
_exptl_absorpt_correction_T_max          ?
loop_
 _exptl_crystal_face_index_h
 _exptl_crystal_face_index_k
 _exptl_crystal_face_index_l
 _exptl_crystal_face_perp_dist
 ? ? ? ?

#=======================================================================

# 7. EXPERIMENTAL DATA

_exptl_special_details                   ?

_diffrn_ambient_temperature              293
_diffrn_source                           ?
_diffrn_source_power                     ?
_diffrn_source_voltage                   ?
_diffrn_source_current                   ?
_diffrn_radiation_type                   'Mo K\a'
_diffrn_radiation_source                 'X-ray tube'
_diffrn_radiation_wavelength             0.71073
_diffrn_radiation_monochromator          graphite
_diffrn_measurement_device               'four-circle diffractometer'
_diffrn_measurement_device_type          'IPDS Stoe'
_diffrn_detector                         ?
_diffrn_detector_area_resol_mean         ?
_diffrn_measurement_method               '??integration method??'
_diffrn_measurement_specimen_support     ?

_diffrn_reflns_number                    6433
_diffrn_reflns_theta_min                 3.68
_diffrn_reflns_theta_max                 33.35
_diffrn_reflns_theta_full                33.35
_diffrn_measured_fraction_theta_max      1
_diffrn_measured_fraction_theta_full     1
_diffrn_reflns_av_R_equivalents          0.0323
_diffrn_reflns_av_unetI/netI             0.0078
_diffrn_reflns_limit_h_min               -12
_diffrn_reflns_limit_h_max               12
_diffrn_reflns_limit_k_min               -12
_diffrn_reflns_limit_k_max               12
_diffrn_reflns_limit_l_min               -11
_diffrn_reflns_limit_l_max               11
_diffrn_reflns_reduction_process         ?

_diffrn_standards_number                 ?
_diffrn_standards_interval_count         ?
_diffrn_standards_interval_time          ?
_diffrn_standards_decay_%                ?
loop_
_diffrn_standard_refln_index_h
_diffrn_standard_refln_index_k
_diffrn_standard_refln_index_l
  ? ? ?

_diffrn_radiation_probe                  X-ray

#=======================================================================

# 8. REFINEMENT DATA

_refine_special_details
; ?
;

_reflns_number_total                     270
_reflns_number_gt                        236
_reflns_threshold_expression             'I>3\s(I)'

_refine_ls_structure_factor_coef         Fsqd
_refine_ls_R_factor_gt                   0.0090
_refine_ls_wR_factor_gt                  0.0205
_refine_ls_R_factor_all                  0.0125
_refine_ls_wR_factor_ref                 0.0212
_refine_ls_goodness_of_fit_ref           0.77
_refine_ls_goodness_of_fit_gt            0.80
_refine_ls_restrained_S_gt               ?
_refine_ls_restrained_S_all              ?
_refine_ls_number_reflns                 270
_refine_ls_number_parameters             14
_refine_ls_number_restraints             0
_refine_ls_number_constraints            0
_refine_ls_weighting_scheme              sigma
_refine_ls_weighting_details             'w=1/(\s^2^(I)+0.0004I^2^)'
_refine_ls_hydrogen_treatment            ?
_refine_ls_shift/su_max                  0.0004
_refine_ls_shift/su_mean                 0.0001
_refine_diff_density_max                 1.24
_refine_diff_density_min                 -1.99
_refine_ls_extinction_method
 'B-C type 1 Lorentzian isotropic (Becker & Coppens, 1974)'
_refine_ls_extinction_coef               183(10)
_refine_ls_abs_structure_details         ?
_refine_ls_abs_structure_Flack           ?
_refine_ls_abs_structure_Rogers          ?

loop_
 _atom_type_symbol
 _atom_type_scat_dispersion_real
 _atom_type_scat_dispersion_imag
 _atom_type_scat_source
 Eu  -0.1578  3.6682
 'International Tables Vol C tables 4.2.6.8 and 6.1.1.1'
 Ni   0.3393  1.1124
 'International Tables Vol C tables 4.2.6.8 and 6.1.1.1'
 Sn  -0.6537  1.4246
 'International Tables Vol C tables 4.2.6.8 and 6.1.1.1'

_computing_data_collection               ?
_computing_cell_refinement               ?
_computing_data_reduction                ?
_computing_structure_solution            ?
_computing_structure_refinement          ?
_computing_molecular_graphics            ?
_computing_publication_material          ?

loop_
 _restr_distance_atom_site_label_1
 _restr_distance_site_symmetry_1
 _restr_distance_atom_site_label_2
 _restr_distance_site_symmetry_2
 _restr_distance_target
 _restr_distance_target_weight_param
 ? ? ? ? ? ?

loop_
 _restr_angle_atom_site_label_1
 _restr_angle_site_symmetry_1
 _restr_angle_atom_site_label_2
 _restr_angle_site_symmetry_2
 _restr_angle_atom_site_label_3
 _restr_angle_site_symmetry_3
 _restr_angle_target
 _restr_angle_target_weight_param
 ? ? ? ? ? ? ? ?

loop_
 _restr_torsion_atom_site_label_1
 _restr_torsion_site_symmetry_1
 _restr_torsion_atom_site_label_2
 _restr_torsion_site_symmetry_2
 _restr_torsion_atom_site_label_3
 _restr_torsion_site_symmetry_3
 _restr_torsion_atom_site_label_4
 _restr_torsion_site_symmetry_4
 _restr_torsion_angle_target
 _restr_torsion_weight_param
 ? ? ? ? ? ? ? ? ? ?

loop_
 _restr_equal_distance_atom_site_label_1
 _restr_equal_distance_site_symmetry_1
 _restr_equal_distance_atom_site_label_2
 _restr_equal_distance_site_symmetry_2
 _restr_equal_distance_class_class_id
 _restr_equal_distance_class_target_weight_param
 ? ? ? ? ? ?

loop_
 _restr_equal_angle_atom_site_label_1
 _restr_equal_angle_site_symmetry_1
 _restr_equal_angle_atom_site_label_2
 _restr_equal_angle_site_symmetry_2
 _restr_equal_angle_atom_site_label_3
 _restr_equal_angle_site_symmetry_3
 _restr_equal_angle_class_class_id
 _restr_equal_angle_class_target_weight_param
 ? ? ? ? ? ? ? ?

loop_
 _restr_equal_torsion_atom_site_label_1
 _restr_equal_torsion_site_symmetry_1
 _restr_equal_torsion_atom_site_label_2
 _restr_equal_torsion_site_symmetry_2
 _restr_equal_torsion_atom_site_label_3
 _restr_equal_torsion_site_symmetry_3
 _restr_equal_torsion_atom_site_label_4
 _restr_equal_torsion_site_symmetry_4
 _restr_equal_torsion_class_class_id
 _restr_equal_torsion_class_target_weight_param
 ? ? ? ? ? ? ? ? ? ?


#=======================================================================

# 9. ATOMIC COORDINATES AND DISPLACEMENT PARAMETERS

loop_
 _atom_site_label
 _atom_site_type_symbol
 _atom_site_fract_x
 _atom_site_fract_y
 _atom_site_fract_z
 _atom_site_adp_type
 _atom_site_U_iso_or_equiv
 _atom_site_site_symmetry_multiplicity
 _atom_site_occupancy
 _atom_site_calc_flag
 _atom_site_refinement_flags
 _atom_site_disorder_assembly
 _atom_site_disorder_group
  Eu1 Eu 0 0 0.25 Uani 0.01257(6) 4 1 d . . .
  Sn1 Sn 0.33898(2) 0.16102(2) 0 Uani 0.01221(5) 8 1 d . . .
  Ni1 Ni 0.13603(3) 0.36397(3) 0.16264(4) Uani 0.01452(7) 16 1 d . . .

loop_
 _atom_site_aniso_label
 _atom_site_aniso_type_symbol
 _atom_site_aniso_U_11
 _atom_site_aniso_U_22
 _atom_site_aniso_U_33
 _atom_site_aniso_U_12
 _atom_site_aniso_U_13
 _atom_site_aniso_U_23
 Eu1 Eu 0.01052(8) 0.01052(8) 0.01667(13) 0 0 0
 Sn1 Sn 0.01391(8) 0.01391(8) 0.00880(11) -0.00266(7) 0 0
 Ni1 Ni 0.01691(11) 0.01691(11) 0.00975(16) -0.00497(10) 0.00053(8) -0.00053(8)

loop_
 _jana_atom_site_ADP_C_label
 _jana_atom_site_ADP_C_type_symbol
 _jana_atom_site_ADP_C_111
 _jana_atom_site_ADP_C_112
 _jana_atom_site_ADP_C_113
 _jana_atom_site_ADP_C_122
 _jana_atom_site_ADP_C_123
 _jana_atom_site_ADP_C_133
 _jana_atom_site_ADP_C_222
 _jana_atom_site_ADP_C_223
 _jana_atom_site_ADP_C_233
 _jana_atom_site_ADP_C_333
 ? ? ? ? ? ? ? ? ? ? ? ?

loop_
 _jana_atom_site_ADP_D_label
 _jana_atom_site_ADP_D_type_symbol
 _jana_atom_site_ADP_D_1111
 _jana_atom_site_ADP_D_1112
 _jana_atom_site_ADP_D_1113
 _jana_atom_site_ADP_D_1122
 _jana_atom_site_ADP_D_1123
 _jana_atom_site_ADP_D_1133
 _jana_atom_site_ADP_D_1222
 _jana_atom_site_ADP_D_1223
 _jana_atom_site_ADP_D_1233
 _jana_atom_site_ADP_D_1333
 _jana_atom_site_ADP_D_2222
 _jana_atom_site_ADP_D_2223
 _jana_atom_site_ADP_D_2233
 _jana_atom_site_ADP_D_2333
 _jana_atom_site_ADP_D_3333
 ? ? ? ? ? ? ? ? ? ? ? ? ? ? ? ? ?

loop_
 _jana_atom_site_ADP_E_label
 _jana_atom_site_ADP_E_type_symbol
 _jana_atom_site_ADP_E_11111
 _jana_atom_site_ADP_E_11112
 _jana_atom_site_ADP_E_11113
 _jana_atom_site_ADP_E_11122
 _jana_atom_site_ADP_E_11123
 _jana_atom_site_ADP_E_11133
 _jana_atom_site_ADP_E_11222
 _jana_atom_site_ADP_E_11223
 _jana_atom_site_ADP_E_11233
 _jana_atom_site_ADP_E_11333
 _jana_atom_site_ADP_E_12222
 _jana_atom_site_ADP_E_12223
 _jana_atom_site_ADP_E_12233
 _jana_atom_site_ADP_E_12333
 _jana_atom_site_ADP_E_13333
 _jana_atom_site_ADP_E_22222
 _jana_atom_site_ADP_E_22223
 _jana_atom_site_ADP_E_22233
 _jana_atom_site_ADP_E_22333
 _jana_atom_site_ADP_E_23333
 _jana_atom_site_ADP_E_33333
 ? ? ? ? ? ? ? ? ? ? ? ? ? ? ? ? ? ? ? ? ? ? ?

loop_
 _jana_atom_site_ADP_F_label
 _jana_atom_site_ADP_F_type_symbol
 _jana_atom_site_ADP_F_111111
 _jana_atom_site_ADP_F_111112
 _jana_atom_site_ADP_F_111113
 _jana_atom_site_ADP_F_111122
 _jana_atom_site_ADP_F_111123
 _jana_atom_site_ADP_F_111133
 _jana_atom_site_ADP_F_111222
 _jana_atom_site_ADP_F_111223
 _jana_atom_site_ADP_F_111233
 _jana_atom_site_ADP_F_111333
 _jana_atom_site_ADP_F_112222
 _jana_atom_site_ADP_F_112223
 _jana_atom_site_ADP_F_112233
 _jana_atom_site_ADP_F_112333
 _jana_atom_site_ADP_F_113333
 _jana_atom_site_ADP_F_122222
 _jana_atom_site_ADP_F_122223
 _jana_atom_site_ADP_F_122233
 _jana_atom_site_ADP_F_122333
 _jana_atom_site_ADP_F_123333
 _jana_atom_site_ADP_F_133333
 _jana_atom_site_ADP_F_222222
 _jana_atom_site_ADP_F_222223
 _jana_atom_site_ADP_F_222233
 _jana_atom_site_ADP_F_222333
 _jana_atom_site_ADP_F_223333
 _jana_atom_site_ADP_F_233333
 _jana_atom_site_ADP_F_333333
 ? ? ? ? ? ? ? ? ? ? ? ? ? ? ? ? ? ? ? ? ? ? ? ? ? ? ? ? ? ?


#=======================================================================

# 10. MOLECULAR GEOMETRY


loop_
 _geom_bond_atom_site_label_1
 _geom_bond_atom_site_label_2
 _geom_bond_site_symmetry_1
 _geom_bond_site_symmetry_2
 _geom_bond_distance
 _geom_bond_publ_flag
 ? ? ? ? ? ?

loop_
 _geom_angle_atom_site_label_1
 _geom_angle_atom_site_label_2
 _geom_angle_atom_site_label_3
 _geom_angle_site_symmetry_1
 _geom_angle_site_symmetry_2
 _geom_angle_site_symmetry_3
 _geom_angle
 _geom_angle_publ_flag
 ? ? ? ? ? ? ? ?

loop_
 _geom_torsion_atom_site_label_1
 _geom_torsion_atom_site_label_2
 _geom_torsion_atom_site_label_3
 _geom_torsion_atom_site_label_4
 _geom_torsion_site_symmetry_1
 _geom_torsion_site_symmetry_2
 _geom_torsion_site_symmetry_3
 _geom_torsion_site_symmetry_4
 _geom_torsion
 _geom_torsion_publ_flag
 ? ? ? ? ? ? ? ? ? ?

loop_
 _geom_hbond_atom_site_label_D
 _geom_hbond_atom_site_label_H
 _geom_hbond_atom_site_label_A
 _geom_hbond_site_symmetry_D
 _geom_hbond_site_symmetry_H
 _geom_hbond_site_symmetry_A
 _geom_hbond_distance_DH
 _geom_hbond_distance_HA
 _geom_hbond_distance_DA
 _geom_hbond_angle_DHA
 _geom_hbond_publ_flag
 ? ? ? ? ? ? ? ? ? ? ?


#=======================================================================

# 11. STRUCTURE-FACTOR LIST

loop_
 _refln_index_h
 _refln_index_k
 _refln_index_l
 _refln_F_squared_calc
 _refln_F_squared_meas
 _refln_F_squared_sigma
 _refln_observed_status
   1   1   0   2585.48   3030.79    213.33 o
   0   2   0    357.02    416.72    163.28 <
   2   2   0  78485.50  79533.50    299.86 o
   1   3   0 297260.00 305654.00    451.13 o
   3   3   0  84411.10  87593.60    307.48 o
   0   4   0  76383.30  77737.70    262.59 o
   2   4   0  75210.50  76371.30    188.29 o
   4   4   0 201888.00 209471.00    449.86 o
   1   5   0  37127.80  37253.30    129.87 o
   3   5   0  20514.90  20931.10    123.25 o
   5   5   0   2968.08   2953.44    129.26 o
   0   6   0 185801.00 187859.00    373.55 o
   2   6   0   1202.76   1340.32     85.29 o
   4   6   0   1909.01   1998.79     95.06 o
   6   6   0  74618.40  73249.00    215.62 o
   1   7   0   2664.26   2784.75     90.22 o
   3   7   0 127462.00 126177.00    215.93 o
   5   7   0  15621.80  15670.10    129.87 o
   7   7   0   4725.73   4630.02    170.76 o
   0   8   0  40323.00  40003.90    193.18 o
   2   8   0  12747.00  12399.70    117.51 o
   4   8   0     77.56    131.51    107.16 <
   6   8   0   7090.15   7038.59    119.63 o
   8   8   0  20979.20  22281.50    232.97 o
   1   9   0  20977.90  20738.90    139.91 o
   3   9   0    191.53    294.70    109.60 <
   5   9   0  18468.60  18653.30    166.66 o
   7   9   0  14024.60  14210.30    156.59 o
   0  10   0   4071.34   3916.77    202.42 o
   2  10   0  16674.60  16477.20    142.07 o
   4  10   0  30929.10  30601.00    162.40 o
   6  10   0    607.17    499.35    155.89 o
   1  11   0  14513.10  14971.80    161.51 o
   3  11   0    337.31    350.73    151.01 <
   5  11   0    594.76    460.37    187.56 <
   0  12   0   8388.98   8007.60    263.74 o
   1   2   1  11143.10  11041.80     96.58 o
   2   3   1   3728.38   3815.35     63.55 o
   1   4   1  20806.90  20836.00     86.73 o
   3   4   1      1.19     99.85     56.01 <
   2   5   1   6010.69   6158.25     68.45 o
   4   5   1  12556.20  13010.40     73.55 o
   1   6   1   1638.45   1623.44     65.81 o
   3   6   1   1725.36   1828.10     65.81 o
   5   6   1    986.93   1028.15     65.78 o
   2   7   1  17769.60  17811.00     85.94 o
   4   7   1   7515.91   7443.79     75.73 o
   6   7   1   1052.85   1123.13     70.65 o
   1   8   1   8292.56   8303.96     75.76 o
   3   8   1      0.40     90.11     73.06 <
   5   8   1   6438.20   6378.48     85.44 o
   7   8   1   4665.41   4602.78     90.25 o
   2   9   1    491.07    601.64     80.38 o
   4   9   1     72.38     60.89     85.24 <
   6   9   1    614.76    589.48     92.56 o
   8   9   1     55.57     90.11    126.64 <
   1  10   1   7829.17   7789.99     92.80 o
   3  10   1    639.59    601.66     92.56 o
   5  10   1   6328.61   6242.76    104.94 o
   2  11   1   6848.58   6910.21    112.28 o
   4  11   1   3611.78   3533.03    114.60 o
   1  12   1     57.05      2.44    153.43 <
   0   0   2   3037.69   3438.45    252.25 o
   1   1   2  53929.20  52702.80    244.45 o
   0   2   2 102678.00 101299.00    346.17 o
   2   2   2  19309.10  19448.90    129.20 o
   1   3   2  13373.90  13646.40     91.27 o
   3   3   2 104997.00 105428.00    207.32 o
   0   4   2  42286.30  42737.80    168.63 o
   2   4   2  13142.90  13184.70     86.05 o
   4   4   2  22998.90  23262.00    120.91 o
   1   5   2  48788.80  49771.60    110.46 o
   3   5   2   1503.03   1552.63     65.81 o
   5   5   2  15986.20  16042.30    107.95 o
   0   6   2    367.62    414.09     99.87 o
   2   6   2  41434.10  42015.20     99.49 o
   4   6   2  35082.20  35208.70     91.53 o
   6   6   2    255.26    238.69     99.86 <
   1   7   2  18136.60  17949.00     88.41 o
   3   7   2   3805.17   3732.19     68.30 o
   5   7   2  21352.60  21108.70     81.03 o
   7   7   2   9704.96   9850.12    124.62 o
   0   8   2  38276.40  38610.50    153.35 o
   2   8   2   6295.49   6167.19     75.69 o
   4   8   2   1295.88   1369.33     77.97 o
   6   8   2  14496.00  14386.90     93.01 o
   8   8   2   6456.95   6347.90    153.76 o
   1   9   2    603.90    594.36     80.38 o
   3   9   2  40526.30  40701.10    111.17 o
   5   9   2   2583.57   2644.69     92.63 o
   7   9   2     90.44    114.46    107.16 <
   0  10   2  18424.20  18366.90    151.96 o
   2  10   2   2729.37   2891.03     95.07 o
   4  10   2   2239.49   2227.58    104.80 o
   6  10   2  12776.50  12616.90    129.62 o
   1  11   2   9744.33   9758.35    117.28 o
   3  11   2    732.49    699.11    116.93 o
   1   2   3 206642.00 198787.00    303.71 o
   2   3   3  30451.30  30560.70    127.05 o
   1   4   3  45766.70  45629.80    125.58 o
   3   4   3   1770.64   1901.58     70.70 o
   2   5   3 132040.00 132143.00    164.47 o
   4   5   3  32084.60  31842.10     98.91 o
   1   6   3  26424.30  26327.30     96.24 o
   3   6   3   9530.28   9502.99     83.17 o
   5   6   3  21121.40  20756.80     93.33 o
   2   7   3   2854.17   2967.46     70.71 o
   4   7   3   6650.62   6558.53     85.46 o
   6   7   3    516.66    548.05     80.38 o
   1   8   3  28706.70  28216.70    103.44 o
   3   8   3   1863.68   1869.23     77.99 o
   5   8   3  25218.40  25041.30     98.28 o
   7   8   3   4050.01   4189.61    107.30 o
   2   9   3  19449.10  19296.90    105.45 o
   4   9   3   2507.47   2576.39     90.19 o
   6   9   3   7264.85   7140.64    114.74 o
   1  10   3     28.60     46.27     99.85 <
   3  10   3   1387.91   1505.75    102.33 o
   5  10   3      8.87     29.22    109.59 <
   2  11   3   5678.27   5602.07    122.00 o
   4  11   3   4983.48   5142.15    158.56 o
   0   0   4  73681.90  71336.50    427.77 o
   1   1   4  29228.90  28607.10    169.64 o
   0   2   4   5608.22   5684.95    151.66 o
   2   2   4  40594.50  40559.10    155.36 o
   1   3   4  38729.90  38368.70    127.49 o
   3   3   4    583.86    789.33    102.32 o
   0   4   4  20050.90  20020.30    157.78 o
   2   4   4  31154.90  31549.90    123.94 o
   4   4   4   8553.53   8410.37    119.83 o
   1   5   4   3673.74   3562.52     78.08 o
   3   5   4  47310.80  47163.90    127.00 o
   5   5   4  10853.50  10558.50    129.66 o
   0   6   4  61537.90  60810.10    182.88 o
   2   6   4   2592.04   2560.12     85.34 o
   4   6   4   2097.22   2132.77     80.44 o
   6   6   4  36537.40  36076.60    145.60 o
   1   7   4  10468.70  10547.00     90.50 o
   3   7   4  17377.20  17433.80     95.63 o
   5   7   4   1451.54   1430.31     90.16 o
   7   7   4   4793.37   4883.49    143.92 o
   0   8   4     10.01     80.37    114.46 <
   2   8   4  13080.00  12867.50     95.44 o
   4   8   4  22225.20  21882.10    117.82 o
   6   8   4   1196.87   1169.44    104.76 o
   8   8   4   1768.88   1644.82    182.76 o
   1   9   4  22063.40  21602.40    115.35 o
   3   9   4    892.11    847.76    102.32 o
   5   9   4   8732.40   8971.17    112.35 o
   7   9   4  13633.70  13816.60    183.47 o
   0  10   4    832.67    723.50    136.42 o
   2  10   4   9117.22   9187.36    107.48 o
   4  10   4   7345.15   7482.51    126.95 o
   1  11   4    977.45    947.66    114.50 o
   3  11   4  10989.20  10641.90    219.98 o
   1   2   5  10541.00  10448.80     93.16 o
   2   3   5    613.89    718.67     90.14 o
   1   4   5  13030.30  13118.60    102.99 o
   3   4   5     15.04     77.93     92.54 <
   2   5   5   7279.22   7467.39     85.52 o
   4   5   5   9142.24   8910.59    122.23 o
   1   6   5    204.58    224.07     82.81 <
   3   6   5    427.21    421.39     82.82 o
   5   6   5    109.60    160.74    104.72 <
   2   7   5  10315.00  10124.80    100.25 o
   4   7   5   5238.87   5253.29     90.28 o
   6   7   5    479.51    474.97     99.87 o
   1   8   5   6812.86   6845.62     97.66 o
   3   8   5      9.53    -14.61     99.85 <
   5   8   5   5653.72   5607.16    102.48 o
   7   8   5   3527.20   3501.24    131.66 o
   2   9   5     24.56     63.32     99.85 <
   4   9   5    112.12    153.43    116.90 <
   6   9   5    144.18    182.66    126.64 <
   1  10   5   4756.46   5066.24    109.76 o
   3  10   5    253.40    258.17    129.08 <
   0   0   6  99075.90  98732.40    447.29 o
   1   1   6  81523.40  81324.40    297.63 o
   0   2   6  60934.00  60359.80    246.43 o
   2   2   6   5890.66   5940.67    134.35 o
   1   3   6   8245.94   8324.15    100.26 o
   3   3   6 170593.00 170426.00    351.14 o
   0   4   6 161012.00 155330.00    352.87 o
   2   4   6   1809.13   1825.57     80.43 o
   4   4   6  10363.80  10394.10    151.63 o
   1   5   6   7294.46   7248.26     92.83 o
   3   5   6   9070.01   8897.12     92.88 o
   5   5   6  18612.90  17914.70    154.48 o
   0   6   6  11362.10  11519.90    166.35 o
   2   6   6  27872.80  27644.20    120.62 o
   4   6   6  42581.50  42484.40    126.12 o
   6   6   6   3222.24   3186.52    131.65 o
   1   7   6  44902.60  44186.40    118.82 o
   3   7   6   8942.14   8866.12    107.50 o
   5   7   6   3359.75   3454.85    102.40 o
   7   7   6  33445.70  33889.20    199.43 o
   0   8   6    252.57    250.86    126.65 <
   2   8   6   5041.32   4979.23    102.46 o
   4   8   6  18257.00  18024.60    115.17 o
   6   8   6   3990.37   4062.65    119.49 o
   1   9   6    896.47    923.28    109.62 o
   3   9   6  22249.70  22403.90    130.03 o
   5   9   6    253.26    228.94    131.52 <
   0  10   6  32024.90  31938.90    216.57 o
   2  10   6    515.21    611.38    124.22 o
   1   2   7   2243.58   2230.64     95.08 o
   2   3   7   1860.17   1862.09     92.62 o
   1   4   7   7276.45   7005.65    107.48 o
   3   4   7      0.19     73.06     87.67 <
   2   5   7   1702.52   1725.36     97.48 o
   4   5   7   5416.99   5324.37    104.93 o
   1   6   7   1121.31   1206.00    102.33 o
   3   6   7   1118.28   1115.84    107.20 o
   5   6   7    831.93    767.35    119.37 o
   2   7   7   9325.85   8976.50    112.39 o
   4   7   7   3898.36   3921.21    104.86 o
   6   7   7    739.58    703.99    114.49 o
   1   8   7   3983.61   4162.75    109.74 o
   3   8   7      3.05    -46.27    116.90 <
   5   8   7   3302.40   3364.45    131.65 o
   2   9   7    536.75    509.08    126.66 o
   4   9   7     24.55    -46.27    233.79 <
   0   0   8  43563.20  43427.10    371.93 o
   1   1   8   5039.32   5095.61    153.75 o
   0   2   8    995.53   1018.39    155.93 o
   2   2   8  14131.10  13861.30    159.18 o
   1   3   8  20292.40  19875.50    135.01 o
   3   3   8    598.32    618.72    136.41 o
   0   4   8   1532.87   1544.91    163.26 o
   2   4   8  12681.60  12544.80    112.55 o
   4   4   8   8357.67   8280.27    158.77 o
   1   5   8   2100.52   2147.18    109.67 o
   3   5   8  16340.00  16141.10    124.92 o
   5   5   8   3261.90   3266.97    156.04 o
   0   6   8  31000.90  30817.10    194.47 o
   2   6   8    608.57    674.73    109.61 o
   4   6   8    226.42    270.34    124.21 <
   6   6   8  19587.90  19991.00    186.28 o
   1   7   8   2081.52   2156.80    116.98 o
   3   7   8  12144.80  12387.50    122.26 o
   5   7   8    923.74    884.30    129.11 o
   0   8   8    237.39    243.55    163.18 <
   2   8   8   5534.17   5638.41    129.31 o
   4   8   8   7010.14   6751.75    148.90 o
   1   2   9  42252.60  42502.20    163.21 o
   2   3   9   6269.25   6409.51    122.04 o
   1   4   9  12115.10  12160.10    124.73 o
   3   4   9    458.61    538.30    119.35 o
   2   5   9  36589.20  36097.90    165.19 o
   4   5   9  10653.30  10873.40    139.31 o
   1   6   9   7231.17   7414.12    126.95 o
   3   6   9   2689.73   2695.91    131.63 o
   5   6   9   6988.67   7049.50    144.02 o
   2   7   9   1383.69   1335.18    136.44 o
   0   0  10    721.43    799.00    328.86 <
   1   1  10   4356.96   4382.94    173.17 o
   0   2  10  12038.30  12232.20    176.07 o
   2   2  10   1867.50   1883.73    185.21 o
   1   3  10   1918.37   1998.29    136.47 o
   3   3  10  14436.30  15084.10    234.93 o
   0   4  10   3596.27   3642.82    182.87 o
   2   4  10   1559.32   1578.93    134.01 o
   4   4  10   5590.73   5604.35    200.07 o
   1   5  10   9188.99   9363.21    131.91 o
   3   5  10      8.00     99.85    153.43 <
   0   6  10    378.98    362.91    197.29 <
   2   6  10   7862.44   7979.36    168.48 o
   1   2  11   4186.04   4211.70    146.32 o
   2   3  11      1.59     68.19    165.60 <
   1   4  11   3768.95   3830.70    163.37 o

loop_
 _twin_refln_datum_id
 _twin_refln_individual_id
 _twin_refln_index_h
 _twin_refln_index_k
 _twin_refln_index_l
 _twin_refln_F_squared_calc
 _twin_refln_F_squared_meas
 _twin_refln_F_squared_sigma
 _twin_refln_include_status
 ? ? ? ? ? ? ? ? ?

